/*
 _____     _____     _____ _____ _____ _____    |  High-order Python FOAM
|  |  |___|  _  |_ _|   __|     |  _  |     |   |  Python Version: 3.10
|     | . |   __| | |   __|  |  |     | | | |   |  Code Version: 0.0
|__|__|___|__|  |_  |__|  |_____|__|__|_|_|_|   |  License: GPLv3
                |___|
*/
FoamFile
{
    version     2.0;
    format      ascii;
    class       volVectorField;
    location    "85.0";
    object     U;
}

dimensions      [0 1 0 0 0 0 0]; 

internalField   nonuniform List<vector>
100
(
(0.01527338582387044 0.036512978126677614 0.0) 
(0.02011348954334387 0.04631807861497251 0.0) 
(0.02863096093440445 0.046911649088450684 0.0) 
(0.0374014254025916 0.04944719420787177 0.0) 
(0.04592038161207483 0.050920447264263785 0.0) 
(0.054400063671875415 0.05090503439287318 0.0) 
(0.06295120207652756 0.04939737129758069 0.0) 
(0.0718249974523458 0.046898727359699 0.0) 
(0.0801000461787774 0.04590320361724316 0.0) 
(0.0857936167831032 0.035851946022540576 0.0) 
(0.016114027795325957 0.0242689632202009 0.0) 
(0.014969278924662878 0.03607625305402648 0.0) 
(0.024771369150148662 0.03989600070649809 0.0) 
(0.0351359021192615 0.04174447025537931 0.0) 
(0.04518460100263808 0.042778792619807625 0.0) 
(0.05513444047379602 0.04275411157576803 0.0) 
(0.06520476737863569 0.04166555545051511 0.0) 
(0.07557436346737821 0.03971520343947233 0.0) 
(0.08538087215817546 0.0356888611838895 0.0) 
(0.08401931835359294 0.024121546524201388 0.0) 
(0.011699816883041227 0.013143202553561896 0.0) 
(0.0111026966749751 0.02440722753517583 0.0) 
(0.021258707691297275 0.02851586744877653 0.0) 
(0.03305960222042783 0.030367730609043162 0.0) 
(0.04448794796868774 0.031121091113800157 0.0) 
(0.0557655502602958 0.031090635363117135 0.0) 
(0.06718790104680211 0.03027036080215452 0.0) 
(0.07895519232307373 0.028333130603375768 0.0) 
(0.08900592705148613 0.024208248865493134 0.0) 
(0.0883967703680204 0.01308548354443453 0.0) 
(0.011699317317858565 0.007317157448066969 0.0) 
(0.00845575914680733 0.013890814350469374 0.0) 
(0.018900321644578073 0.01710690365291785 0.0) 
(0.031488367695457 0.01849698499501211 0.0) 
(0.043938616942945714 0.019018611250275028 0.0) 
(0.05623782527794056 0.01899290344373807 0.0) 
(0.06866763029327541 0.01841964529013958 0.0) 
(0.08120362894126384 0.0169930185562668 0.0) 
(0.09158864018351745 0.01378668882629625 0.0) 
(0.08826126695589785 0.007297810990917614 0.0) 
(0.011830553391273625 0.002336525271347857 0.0) 
(0.007572027782640121 0.004568474758346734 0.0) 
(0.017764980413663513 0.00569073299975923 0.0) 
(0.030683292265695314 0.0062219212973254785 0.0) 
(0.043637020602367294 0.006408900218135754 0.0) 
(0.056479582224859895 0.006393549291002644 0.0) 
(0.06941025783994784 0.006179067504487884 0.0) 
(0.08228784757639578 0.005631635696069554 0.0) 
(0.09244234188113501 0.00451980942419831 0.0) 
(0.0881866003024406 0.002317386066292782 0.0) 
(0.011864495142092958 -0.0022773128648266227 0.0) 
(0.007572306230645 -0.004553885674148383 0.0) 
(0.017767312781529744 -0.005702250451678152 0.0) 
(0.030681989049967755 -0.006240922504910126 0.0) 
(0.04362687633950831 -0.0064374273848884535 0.0) 
(0.056459914346218755 -0.0064419407160073525 0.0) 
(0.06938457472398939 -0.006253226730296189 0.0) 
(0.08226390357608881 -0.005720239774157353 0.0) 
(0.09243235333523393 -0.004579863715729583 0.0) 
(0.08814905778852958 -0.0023007530665496976 0.0) 
(0.011739308526756455 -0.007261314589456099 0.0) 
(0.008466962860020941 -0.013884992563797416 0.0) 
(0.018914653883296394 -0.017112931502378578 0.0) 
(0.031485791757568334 -0.018498355576958607 0.0) 
(0.04390834125607079 -0.019027734539786227 0.0) 
(0.056177806246206975 -0.019023939182892833 0.0) 
(0.06858485515460362 -0.018486514239865488 0.0) 
(0.08112493741414202 -0.017093654871248733 0.0) 
(0.09153739262894785 -0.013880694474138328 0.0) 
(0.08823850572634412 -0.007296066256596488 0.0) 
(0.011840063111048592 -0.013120279971082945 0.0) 
(0.011175296145945878 -0.02442346922944203 0.0) 
(0.02128980787068781 -0.028488832892957415 0.0) 
(0.033056544145452754 -0.03033045256001209 0.0) 
(0.04443908733989828 -0.031089669969236466 0.0) 
(0.05566462290515702 -0.031081532208335975 0.0) 
(0.06704097678767568 -0.030306202917698515 0.0) 
(0.07878877333387813 -0.028448049558328838 0.0) 
(0.08890334216151473 -0.024361193816030444 0.0) 
(0.0882004799985944 -0.01313994289286751 0.0) 
(0.016636223243198717 -0.024384937567054277 0.0) 
(0.015039438706356987 -0.036039350155199094 0.0) 
(0.024806709142082325 -0.03981445499402352 0.0) 
(0.03512235340739391 -0.041646782853898695 0.0) 
(0.04511384904050797 -0.042685071580837106 0.0) 
(0.055001212852564645 -0.04268247504996205 0.0) 
(0.06499930516679382 -0.04163007054207556 0.0) 
(0.0753242120445744 -0.03977425752113367 0.0) 
(0.08507808012357773 -0.03598409149686601 0.0) 
(0.08391338000058722 -0.024260282377065817 0.0) 
(0.015251573343635007 -0.03667331421669719 0.0) 
(0.02018960612335081 -0.046228228578341066 0.0) 
(0.028625766323508803 -0.04679339839024166 0.0) 
(0.03737034681218933 -0.04929524641866625 0.0) 
(0.04584305623241796 -0.05077864882629178 0.0) 
(0.05426144779582072 -0.05077763422661696 0.0) 
(0.06273698057555314 -0.04929320653713346 0.0) 
(0.07147928421577442 -0.04676413299142562 0.0) 
(0.07996883911738155 -0.04618309754733086 0.0) 
(0.08477411564699826 -0.03645097718074193 0.0) 
)
;

boundaryField
{
	bottom
	{
		type	solidTraction;
		value	nonuniform List<vector>
10
(
(0.016359853107219505 0.04239215292595995 0.0) 
(0.022754665948070983 0.049156090659508773 0.0) 
(0.030571938470965405 0.05114341035559721 0.0) 
(0.0384918348989166 0.053110202905327634 0.0) 
(0.046286423136554185 0.054680485947300045 0.0) 
(0.05404313745432413 0.05466975780304442 0.0) 
(0.06188691642757955 0.05309690580783402 0.0) 
(0.06984870913677303 0.05109828360259074 0.0) 
(0.07779364279778958 0.048726419287761884 0.0) 
(0.08483419689613926 0.041614966856961366 0.0) 
)
;
	}
	top
	{
		type	solidTraction;
		value	nonuniform List<vector>
10
(
(0.016252474614075876 -0.042543665391026796 0.0) 
(0.02273316842627021 -0.049105415274065076 0.0) 
(0.030561623257229803 -0.051004029704843544 0.0) 
(0.03844736477237038 -0.05294159033385301 0.0) 
(0.04620173306072485 -0.054514339144436375 0.0) 
(0.05389785518621529 -0.05451507558068834 0.0) 
(0.06165185610793392 -0.0529402947719298 0.0) 
(0.06954674474727522 -0.05098143626247465 0.0) 
(0.0773405402991065 -0.04901514041032039 0.0) 
(0.08370568241741588 -0.04230611970546569 0.0) 
)
;
	}
	left
	{
		type	fixedValue;
		value	uniform (0.0 0.0 0.0);
	}
	right
	{
		type	fixedValue;
		value	uniform (0.1 0.0 0.0);
	}
	frontAndBackPlanes
	{
		type	empty;
	}
}
