/*
 _____     _____     _____ _____ _____ _____    |  High-order Python FOAM
|  |  |___|  _  |_ _|   __|     |  _  |     |   |  Python Version: 3.10
|     | . |   __| | |   __|  |  |     | | | |   |  Code Version: 0.0
|__|__|___|__|  |_  |__|  |_____|__|__|_|_|_|   |  License: GPLv3
                |___|
*/
FoamFile
{
    version     2.0;
    format      ascii;
    class       volScalarField;
    location    "95.0";
    object     p;
}

dimensions      [0 0 0 1 0 0 0]; 

internalField   nonuniform List<scalar>
100
(
381347.84521724767 
-159414.04197383183 
-205461.94688638113 
-153503.5769888743 
-138469.3800232044 
-138726.0037317283 
-154096.75758245666 
-203674.38362931673 
-128443.48295243403 
356651.84864247864 
1381131.8732737051 
374300.16197608353 
155543.0283859056 
186095.93183494936 
208759.29170804707 
209043.59435677124 
187785.2930178741 
163154.18782317283 
379157.1757133587 
1368745.333352774 
1490183.048953913 
503091.08445863915 
205662.1466329463 
211055.09756096054 
228618.8747414539 
228838.91157822742 
212273.24465241435 
207886.96823214798 
504022.3104994693 
1482406.8318975929 
1657393.0987749111 
560591.8316830766 
250184.08817740783 
237831.94271639644 
249117.2627111911 
249167.23386427507 
238076.65101597022 
250390.3271364199 
559300.3725860514 
1654552.184689871 
1740959.920952621 
613172.9266594986 
285439.29129441245 
267410.0479041103 
275023.7327767906 
274964.2373327822 
267278.83875166776 
285067.146820114 
612081.8521869022 
1738472.7751011082 
1743083.993956409 
613052.2123572014 
284979.7949057557 
267049.73746845324 
274769.45082982193 
274697.2522216046 
266930.79447658884 
284596.7779694138 
611809.5515026803 
1740352.3312072218 
1663930.1971090646 
560166.039802491 
248571.6293981863 
236833.5570539132 
248389.2558551583 
248397.2667175566 
236939.1384807924 
248575.91141930805 
558599.1232410251 
1660117.4830661516 
1503265.334427073 
501684.3143128798 
202409.40791811742 
209293.15412772377 
227414.1261497494 
227544.09737901637 
209992.55778258695 
203915.415341536 
500655.2092398803 
1493062.4139351468 
1400988.5812924735 
370755.2305457961 
152342.08704891085 
184081.71902069708 
207397.39543682744 
207583.67774265248 
185251.95153146816 
154655.57874478505 
372706.5157546562 
1380617.758809882 
378850.2886069146 
-155624.96149038328 
-205698.3847585642 
-152770.27814796614 
-137613.50306581327 
-137783.5003434612 
-153158.1454594654 
-205657.6614055794 
-159469.99784013742 
380082.398149827 
)
;

boundaryField
{
	bottom
	{
		type	pressureTraction;
	}
	top
	{
		type	pressureTraction;
	}
	left
	{
		type	fixedValueFromZeroGrad;
	}
	right
	{
		type	fixedValueFromZeroGrad;
	}
	frontAndBackPlanes
	{
		type	empty;
	}
}
