/*
 _____     _____     _____ _____ _____ _____    |  High-order Python FOAM
|  |  |___|  _  |_ _|   __|     |  _  |     |   |  Python Version: 3.10
|     | . |   __| | |   __|  |  |     | | | |   |  Code Version: 0.0
|__|__|___|__|  |_  |__|  |_____|__|__|_|_|_|   |  License: GPLv3
                |___|
*/
FoamFile
{
    version     2.0;
    format      ascii;
    class       volVectorField;
    location    "95.0";
    object     U;
}

dimensions      [0 1 0 0 0 0 0]; 

internalField   nonuniform List<vector>
100
(
(0.015102618868431346 0.03676541335340776 0.0) 
(0.020053823182421018 0.04625047101366011 0.0) 
(0.028631259395044843 0.0468731858988004 0.0) 
(0.037396501594433924 0.049429171868209824 0.0) 
(0.045914549719316945 0.05088575352686683 0.0) 
(0.05441183453622823 0.05086914430655002 0.0) 
(0.06296379857110766 0.04937632439619577 0.0) 
(0.07183933448709896 0.0468652818908864 0.0) 
(0.0801592285161355 0.045840227545793026 0.0) 
(0.08597708485766582 0.036077826669372225 0.0) 
(0.016264277476379062 0.024528952706314427 0.0) 
(0.014905346058962494 0.0360899144710418 0.0) 
(0.02478337054127151 0.039863768862982214 0.0) 
(0.03515771641183793 0.041720933673864966 0.0) 
(0.04519256028929576 0.04275742333964934 0.0) 
(0.055132440436841304 0.04273211725567259 0.0) 
(0.06518956339145947 0.0416411938774765 0.0) 
(0.07556878552808129 0.03968260789905149 0.0) 
(0.0854524753846595 0.03569466990126336 0.0) 
(0.08387668406092881 0.02437712441993177 0.0) 
(0.01177396878094016 0.01321191783121439 0.0) 
(0.011047616891844967 0.02442752828727211 0.0) 
(0.021286868896944876 0.028479402780763597 0.0) 
(0.03309882844392519 0.030324720355985747 0.0) 
(0.04450177799660652 0.031079198484573283 0.0) 
(0.05575645131176952 0.031048442922598066 0.0) 
(0.06715349212127601 0.030226555338617195 0.0) 
(0.0789319253171044 0.02829412810226219 0.0) 
(0.0890633588244676 0.024224322040529937 0.0) 
(0.08832567245378883 0.01315187907580212 0.0) 
(0.011758017240415345 0.007360757893209459 0.0) 
(0.008364504901922653 0.013897165310043362 0.0) 
(0.018930611100844888 0.017089181878070146 0.0) 
(0.03153690411277832 0.01846939149728323 0.0) 
(0.04395618196840926 0.01898980208276649 0.0) 
(0.056223834087648195 0.018963914311582654 0.0) 
(0.068622437357159 0.018391335319836978 0.0) 
(0.08117560162967766 0.016973830190279714 0.0) 
(0.09168049837935141 0.013791280987759155 0.0) 
(0.08820436249926188 0.007341646003837593 0.0) 
(0.011888562417136858 0.002350046317341216 0.0) 
(0.007469887704769053 0.0045725038620764834 0.0) 
(0.017791753536931496 0.005686270288849557 0.0) 
(0.030734707123401102 0.006214223220836277 0.0) 
(0.04365597848074833 0.006400269701994072 0.0) 
(0.05646333710314759 0.006384866654737487 0.0) 
(0.06936109133685672 0.006171205774850985 0.0) 
(0.0822622031609589 0.0056268767589872995 0.0) 
(0.09254422741683056 0.004523652370420131 0.0) 
(0.08812984906071303 0.0023312121183064888 0.0) 
(0.011922869315950803 -0.0022887327882870905 0.0) 
(0.007469906476354246 -0.0045576412156461315 0.0) 
(0.017794116139975894 -0.00569815648265276 0.0) 
(0.03073346245647392 -0.006233556760367698 0.0) 
(0.04364569754386327 -0.006429021354950783 0.0) 
(0.056443338264231716 -0.0064334108974328464 0.0) 
(0.06933493771769435 -0.0062454347567736145 0.0) 
(0.08223784019745653 -0.005715412371022293 0.0) 
(0.09253420494603685 -0.004582935556151368 0.0) 
(0.08809158703753309 -0.002312061881874058 0.0) 
(0.011798668592457746 -0.0073027202184960185 0.0) 
(0.008374903033206661 -0.013891102963842697 0.0) 
(0.0189452559649353 -0.01709554187666891 0.0) 
(0.03153450086185377 -0.01847079371464324 0.0) 
(0.04392545348516958 -0.01899886925512575 0.0) 
(0.05616281756878059 -0.018994844898791954 0.0) 
(0.06853813489813476 -0.01845808321459498 0.0) 
(0.0810954054633359 -0.017074581862295154 0.0) 
(0.09162885143487356 -0.01388527993884577 0.0) 
(0.08817989677966234 -0.007338014142391341 0.0) 
(0.011915496950832799 -0.013186952692106938 0.0) 
(0.011120061853927641 -0.024443978333152525 0.0) 
(0.021318446026340296 -0.028451654955913747 0.0) 
(0.033095918440183156 -0.030286568791298756 0.0) 
(0.04445203213503404 -0.031046958693859667 0.0) 
(0.05565378141030402 -0.031038633089269917 0.0) 
(0.06700392881162934 -0.030261490170669897 0.0) 
(0.07876192369610825 -0.02840906280535042 0.0) 
(0.08895902630936868 -0.024378904547968896 0.0) 
(0.0881270285704996 -0.013207567340652496 0.0) 
(0.016796457184772927 -0.02465039515672036 0.0) 
(0.014974103853157644 -0.03605120801673598 0.0) 
(0.024819085405827574 -0.03977966290471591 0.0) 
(0.03514388207621316 -0.04162054043023067 0.0) 
(0.04512028259951973 -0.04266132657910022 0.0) 
(0.054996569640395516 -0.042658674168353256 0.0) 
(0.06497987445111178 -0.04160354248495454 0.0) 
(0.07531349329159756 -0.03973852842954702 0.0) 
(0.08514313193685834 -0.035994397694148146 0.0) 
(0.08376429345564457 -0.02451894447113102 0.0) 
(0.015077027334798685 -0.0369313952407121 0.0) 
(0.02013098305875522 -0.04615774300162314 0.0) 
(0.028625160848125178 -0.04675185357792734 0.0) 
(0.03736446160933598 -0.049273387942726746 0.0) 
(0.045835284021222125 -0.05074046728181106 0.0) 
(0.0542704982895882 -0.05073939093773793 0.0) 
(0.06274419225456818 -0.049271371908290056 0.0) 
(0.07148073800127194 -0.04672209522982818 0.0) 
(0.0800296534110175 -0.04611199156427342 0.0) 
(0.08494629286189828 -0.03670014491010445 0.0) 
)
;

boundaryField
{
	bottom
	{
		type	solidTraction;
		value	nonuniform List<vector>
10
(
(0.016125952722488915 0.042623592619073926 0.0) 
(0.02264835679880904 0.0491509582446782 0.0) 
(0.030554177143263563 0.05109521132659679 0.0) 
(0.038476875537995926 0.053085218023461334 0.0) 
(0.0462783618794238 0.054644128118438245 0.0) 
(0.05405758949865599 0.054632028514361 0.0) 
(0.0619115545439396 0.05307051319009798 0.0) 
(0.0698791269702128 0.051056061918306195 0.0) 
(0.0779052773334801 0.04871990174193974 0.0) 
(0.08507950540461358 0.041818891873129295 0.0) 
)
;
	}
	top
	{
		type	solidTraction;
		value	nonuniform List<vector>
10
(
(0.01601303577943562 -0.0427805654378404 0.0) 
(0.02262544501652972 -0.049099098506322034 0.0) 
(0.03054301681068009 -0.05095229667676076 0.0) 
(0.03843091680220665 -0.05291245468911417 0.0) 
(0.04619155759468688 -0.054474144499692095 0.0) 
(0.053909034155268154 -0.05447488604192634 0.0) 
(0.06166917727423007 -0.052911223984967184 0.0) 
(0.06956638357304404 -0.050929509090558725 0.0) 
(0.07744828637015785 -0.04900625729015093 0.0) 
(0.08394106393047823 -0.04253380208865092 0.0) 
)
;
	}
	left
	{
		type	fixedValue;
		value	uniform (0.0 0.0 0.0);
	}
	right
	{
		type	fixedValue;
		value	uniform (0.1 0.0 0.0);
	}
	frontAndBackPlanes
	{
		type	empty;
	}
}
