/*
 _____     _____     _____ _____ _____ _____    |  High-order Python FOAM
|  |  |___|  _  |_ _|   __|     |  _  |     |   |  Python Version: 3.10
|     | . |   __| | |   __|  |  |     | | | |   |  Code Version: 0.0
|__|__|___|__|  |_  |__|  |_____|__|__|_|_|_|   |  License: GPLv3
                |___|
*/
FoamFile
{
    version     2.0;
    format      ascii;
    class       volScalarField;
    location    "76.0";
    object     pCorr;
}

dimensions      [0 0 0 1 0 0 0]; 

internalField   nonuniform List<scalar>
100
(
-805.5412455267373 
-1157.3534007741464 
-300.3063119426317 
-113.69107135452373 
-430.0183121843488 
-430.7464897925495 
-133.37075262382947 
-324.6165994441503 
-939.6901641341328 
-925.1056358707465 
3565.445955615506 
-708.9940739349471 
78.11884656960736 
696.7795636713059 
621.1553593286989 
617.5452387938308 
686.9969790401034 
102.16969592987324 
-672.0975165948707 
3509.424149207619 
3312.301430256657 
-1105.379229037147 
-590.3165564404621 
242.000486666792 
280.9610592981229 
278.94355676370463 
239.57918636500318 
-586.7960219497734 
-1100.9923892303648 
3243.787533043107 
3597.9876092650748 
-1473.4481009202527 
-916.6421970518628 
1.7281830819569433 
113.29692213166348 
112.59728314820399 
0.5834223230746234 
-918.2049618395466 
-1484.243196816432 
3555.5602819301844 
3795.9232280584993 
-1465.9975996807707 
-937.1726318334659 
31.58438257144802 
171.5581185095187 
171.2944230038153 
31.288776265847613 
-938.4621544750331 
-1474.8164260115673 
3759.6750088765216 
3805.0570070939575 
-1469.1235792311822 
-939.9841433163252 
30.639600509829833 
171.30694525608556 
171.01769826452312 
31.023390418244446 
-939.6893625625394 
-1476.20110352111 
3773.521585930535 
3627.1617424673154 
-1487.9240813722174 
-927.665787691707 
-0.5897632155786613 
112.33622593006474 
112.0606016027264 
0.7066078006066028 
-922.7584714959005 
-1487.8753813934832 
3594.227266389493 
3372.755610506101 
-1130.9145482736708 
-613.531399185715 
234.96938402137894 
276.43862001855115 
275.74614751421734 
239.00185233099862 
-595.073532636796 
-1118.3569792867174 
3312.0871279726 
3685.1484947958425 
-749.0578352576622 
53.50613408389612 
685.3132379497389 
611.1210887535746 
610.0624525250536 
689.6728026099511 
77.1801632238451 
-715.553971855843 
3557.3916075712327 
-842.7895235491575 
-1139.843407808321 
-301.1202737124446 
-105.13522614828278 
-425.74487421505177 
-427.29084706283743 
-107.41711207369627 
-298.50182206599305 
-1154.5534054095808 
-814.8142982310555 
)
;

boundaryField
{
	bottom
	{
		type	fixedValue;
		value	uniform 0.0;
	}
	top
	{
		type	fixedValue;
		value	uniform 0.0;
	}
	left
	{
		type	zeroGradient;
	}
	right
	{
		type	zeroGradient;
	}
	frontAndBackPlanes
	{
		type	empty;
	}
}
