/*
 _____     _____     _____ _____ _____ _____    |  High-order Python FOAM
|  |  |___|  _  |_ _|   __|     |  _  |     |   |  Python Version: 3.10
|     | . |   __| | |   __|  |  |     | | | |   |  Code Version: 0.0
|__|__|___|__|  |_  |__|  |_____|__|__|_|_|_|   |  License: GPLv3
                |___|
*/
FoamFile
{
    version     2.0;
    format      ascii;
    class       volVectorField;
    location    "76.0";
    object     U;
}

dimensions      [0 1 0 0 0 0 0]; 

internalField   nonuniform List<vector>
100
(
(0.015469262010295342 0.03621069269811807 0.0) 
(0.020190404687608396 0.04640442857663666 0.0) 
(0.02862544070682478 0.046966381415736384 0.0) 
(0.037403686733198126 0.04946764515520345 0.0) 
(0.04592591013002013 0.05095575185441483 0.0) 
(0.05438747312093416 0.05094170616719992 0.0) 
(0.06293972766652492 0.04942092189813592 0.0) 
(0.07181373056730989 0.046947220021066334 0.0) 
(0.08002369738224618 0.045984867923111045 0.0) 
(0.08558215219552988 0.03558021779157077 0.0) 
(0.015938963640763294 0.02397363940971014 0.0) 
(0.01503753329049506 0.03605661963655339 0.0) 
(0.02475732098655362 0.03993521259657616 0.0) 
(0.03511082057404582 0.04177110666681907 0.0) 
(0.04517542327214623 0.042799690062504114 0.0) 
(0.05513667214184366 0.042775666850574566 0.0) 
(0.06522207704606103 0.041693005904347935 0.0) 
(0.07558076445325715 0.03975482638697693 0.0) 
(0.08530351543202652 0.03567834294821446 0.0) 
(0.08418581024182585 0.02383097769132231 0.0) 
(0.011612882303921603 0.013061110352175028 0.0) 
(0.01116450334628716 0.024382296580310544 0.0) 
(0.021227496564902193 0.028558750625881264 0.0) 
(0.033014991973709086 0.03041849439528066 0.0) 
(0.044471898956986146 0.031168738512995686 0.0) 
(0.05577616598714964 0.031138598125663747 0.0) 
(0.06722688290614987 0.030322019577079445 0.0) 
(0.07898061045634122 0.028378993689293926 0.0) 
(0.0889411932229589 0.024188235905579093 0.0) 
(0.08848034898294628 0.01300592153418769 0.0) 
(0.011628229731350753 0.0072670564205641235 0.0) 
(0.008560296409485248 0.013883032213903506 0.0) 
(0.018868795834315905 0.017128500025631144 0.0) 
(0.0314331408363199 0.01853022645114292 0.0) 
(0.04391793496952747 0.019052466980248157 0.0) 
(0.05625445227009997 0.01902695349246314 0.0) 
(0.06871902241926817 0.018453702270675835 0.0) 
(0.08123246631894197 0.017016333645614088 0.0) 
(0.09148317519597543 0.013780989015378275 0.0) 
(0.08833043950140439 0.0072475150329371595 0.0) 
(0.011760971277125791 0.002321016575919729 0.0) 
(0.007689860235652751 0.004563939258366743 0.0) 
(0.01773829381184672 0.005696384658319674 0.0) 
(0.030624834123018217 0.0062314115901007435 0.0) 
(0.043614562954775095 0.006419230086916913 0.0) 
(0.056498993234378896 0.006403925390627823 0.0) 
(0.06946618560240624 0.006188723103484237 0.0) 
(0.08231320176521079 0.005637626230620294 0.0) 
(0.09232459554862588 0.004515522490726977 0.0) 
(0.08825478665610953 0.0023016259417179864 0.0) 
(0.011794489847519461 -0.0022641802273766494 0.0) 
(0.007690428518660632 -0.004549744754253015 0.0) 
(0.017740608010027536 -0.005707561387484023 0.0) 
(0.030623475443365425 -0.006250099122734478 0.0) 
(0.04360457254474908 -0.006447581466614443 0.0) 
(0.05647970153213603 -0.006452252482744456 0.0) 
(0.06944104574661618 -0.006262921619581147 0.0) 
(0.08228975586724656 -0.00572639778763733 0.0) 
(0.09231468567223045 -0.004576470656394171 0.0) 
(0.08821805043918109 -0.0022877005014479 0.0) 
(0.011667402427423552 -0.007213676711395314 0.0) 
(0.008572370567932072 -0.013877548808373682 0.0) 
(0.018882823880541577 -0.01713423731006393 0.0) 
(0.03143039650433203 -0.018531638728492995 0.0) 
(0.043888170696962533 -0.019061755036676536 0.0) 
(0.056195578853836047 -0.01905823680477672 0.0) 
(0.06863803732644419 -0.01852081704738111 0.0) 
(0.08115557102982918 -0.017116876837369992 0.0) 
(0.09143252475305011 -0.013874951098131557 0.0) 
(0.0883095629508777 -0.0072477886920674015 0.0) 
(0.011751493206929703 -0.013040342596597431 0.0) 
(0.011237178403422407 -0.024398352077256314 0.0) 
(0.02125808664294403 -0.02853259278024122 0.0) 
(0.03301180705473888 -0.030382313841332408 0.0) 
(0.04442404823810279 -0.03113836245625196 0.0) 
(0.05567726368664767 -0.031130445429957406 0.0) 
(0.06708310563141955 -0.030359022589670517 0.0) 
(0.07881848475935976 -0.028493880476269877 0.0) 
(0.08884080060112007 -0.02433924268535047 0.0) 
(0.08828689166264897 -0.013058976190193307 0.0) 
(0.01644961664171153 -0.024083604034906232 0.0) 
(0.015109054147955915 -0.03602171177582869 0.0) 
(0.024792260649917137 -0.03985665270823354 0.0) 
(0.035097651813606585 -0.04167659927528013 0.0) 
(0.04510644737603974 -0.04270873579484844 0.0) 
(0.05500654572501767 -0.042706183121185105 0.0) 
(0.0650216405900943 -0.04166019044400004 0.0) 
(0.07533676915753651 -0.03981756128917409 0.0) 
(0.08500851893132058 -0.03596832487854076 0.0) 
(0.08408715111648538 -0.02396629322538642 0.0) 
(0.01545146167849859 -0.03636468873644218 0.0) 
(0.020265415187982087 -0.0463178190452433 0.0) 
(0.02862132242622923 -0.046851813665202934 0.0) 
(0.03737373091643961 -0.049320256392588205 0.0) 
(0.0458507767537828 -0.05081793198069044 0.0) 
(0.054252175592666825 -0.05081692046820228 0.0) 
(0.06273207903740374 -0.049318104185830325 0.0) 
(0.07148275081365725 -0.046823118142637954 0.0) 
(0.07989049308950959 -0.04627357392731486 0.0) 
(0.0845765349817483 -0.03615231254134236 0.0) 
)
;

boundaryField
{
	bottom
	{
		type	solidTraction;
		value	nonuniform List<vector>
10
(
(0.016632026666134694 0.042114385092552255 0.0) 
(0.02288335955080815 0.04916853787296916 0.0) 
(0.03058930488730285 0.05121080275235868 0.0) 
(0.038504079380886645 0.05314065218462848 0.0) 
(0.04629387582507398 0.05471816477666692 0.0) 
(0.0540279959433514 0.05470892814857003 0.0) 
(0.06186320402966155 0.053128532133826324 0.0) 
(0.06981685234567793 0.05115843333212682 0.0) 
(0.07765858927014736 0.04874083436801244 0.0) 
(0.08454777758253663 0.04136909107073483 0.0) 
)
;
	}
	top
	{
		type	solidTraction;
		value	nonuniform List<vector>
10
(
(0.016530709350100727 -0.04225975364919463 0.0) 
(0.022863528965574142 -0.04911925605013552 0.0) 
(0.030580034025561913 -0.05107562438380589 0.0) 
(0.03846131599217974 -0.05297694961234483 0.0) 
(0.04621161899236718 -0.054556389264269235 0.0) 
(0.053886716309783284 -0.05455705697521228 0.0) 
(0.06163687073821851 -0.052975488648066324 0.0) 
(0.06952715762534771 -0.051053267648783464 0.0) 
(0.07721006555550858 -0.04903199369849164 0.0) 
(0.08343166281381352 -0.0420325750595422 0.0) 
)
;
	}
	left
	{
		type	fixedValue;
		value	uniform (0.0 0.0 0.0);
	}
	right
	{
		type	fixedValue;
		value	uniform (0.1 0.0 0.0);
	}
	frontAndBackPlanes
	{
		type	empty;
	}
}
