/*
 _____     _____     _____ _____ _____ _____    |  High-order Python FOAM
|  |  |___|  _  |_ _|   __|     |  _  |     |   |  Python Version: 3.10
|     | . |   __| | |   __|  |  |     | | | |   |  Code Version: 0.0
|__|__|___|__|  |_  |__|  |_____|__|__|_|_|_|   |  License: GPLv3
                |___|
*/
FoamFile
{
    version     2.0;
    format      ascii;
    class       volScalarField;
    location    "82.0";
    object     pCorr;
}

dimensions      [0 0 0 1 0 0 0]; 

internalField   nonuniform List<scalar>
100
(
-755.9321140034103 
-917.5764161503681 
-240.7289458142029 
-91.3218826675838 
-362.249369921944 
-361.9795715506183 
-108.38923013386241 
-264.3709161709041 
-728.0091684745183 
-857.4967434823843 
3098.148226371344 
-627.9052218213407 
56.11086817023452 
578.5798212542276 
512.6303024867747 
509.9751462957588 
570.2714339561942 
75.73500495860479 
-596.5262904482598 
3049.055929458315 
2828.6624201687464 
-991.7789443877891 
-512.4854928392846 
204.98731285205932 
224.66417891303587 
223.19795404949488 
203.31618905602465 
-509.1370534181131 
-987.8995662382048 
2765.9217660188524 
3077.028691863814 
-1320.1523809308549 
-778.9705628785458 
16.273278844661636 
89.15593705071711 
88.7307650059617 
15.777252276931254 
-779.409004821021 
-1328.6264585692159 
3037.4065340579923 
3249.7479959179336 
-1311.1306720304096 
-787.5642781816017 
52.0748229538644 
145.26563698324694 
145.12004157794874 
52.179075679661494 
-787.7579766029157 
-1317.762328144507 
3216.3057756175485 
3257.6184112486967 
-1313.9948074731892 
-789.9915390305218 
51.36291158224175 
145.10888262674914 
144.84753886741166 
51.82446848449978 
-789.0678004006137 
-1319.2743997401265 
3228.650701168613 
3102.2265271691913 
-1333.615524556886 
-788.5454102331527 
14.634065583374085 
88.45949098390247 
88.10252928078057 
15.625085599078435 
-783.7996419248865 
-1332.4144101900713 
3072.018231567863 
2880.9139298790215 
-1015.2006421508546 
-532.8475342531881 
199.26736081052624 
220.7043736791176 
219.88152169249076 
202.41350080044464 
-516.2480189844198 
-1002.859895886806 
2826.866329661327 
3204.6380708990564 
-663.9742921059968 
34.270774042830645 
568.7123572280562 
503.5822605250258 
502.4320650536137 
572.1034461623699 
55.258629009654435 
-633.354335256739 
3090.6773391080146 
-790.0855558827118 
-902.147326285201 
-241.33632717065848 
-83.22092123215248 
-358.4276394694233 
-360.05192972574423 
-85.63651952170588 
-238.95754543793402 
-914.6918746441675 
-763.8705133094336 
)
;

boundaryField
{
	bottom
	{
		type	fixedValue;
		value	uniform 0.0;
	}
	top
	{
		type	fixedValue;
		value	uniform 0.0;
	}
	left
	{
		type	zeroGradient;
	}
	right
	{
		type	zeroGradient;
	}
	frontAndBackPlanes
	{
		type	empty;
	}
}
