/*
 _____     _____     _____ _____ _____ _____    |  High-order Python FOAM
|  |  |___|  _  |_ _|   __|     |  _  |     |   |  Python Version: 3.10
|     | . |   __| | |   __|  |  |     | | | |   |  Code Version: 0.0
|__|__|___|__|  |_  |__|  |_____|__|__|_|_|_|   |  License: GPLv3
                |___|
*/
FoamFile
{
    version     2.0;
    format      ascii;
    class       volVectorField;
    location    "82.0";
    object     U;
}

dimensions      [0 1 0 0 0 0 0]; 

internalField   nonuniform List<vector>
100
(
(0.015333703378490904 0.03642137506963025 0.0) 
(0.02013614365583399 0.046343679708836925 0.0) 
(0.028629776081234248 0.04692714472184437 0.0) 
(0.03740254414829496 0.049453404635147906 0.0) 
(0.04592225065341325 0.05093187125483216 0.0) 
(0.05439604919559681 0.05091688295498567 0.0) 
(0.06294728920559658 0.04940458146409062 0.0) 
(0.07182100564269782 0.0469123509012641 0.0) 
(0.08007756594100562 0.045927283174404185 0.0) 
(0.08572860948168311 0.03576974637437323 0.0) 
(0.016060409837475517 0.02417766351598331 0.0) 
(0.014990813745216127 0.03607057463007947 0.0) 
(0.024767037455002174 0.03990771042700913 0.0) 
(0.035128169415212095 0.04175260310676159 0.0) 
(0.04518177799230488 0.04278556351631681 0.0) 
(0.05513513776919371 0.04276109243574113 0.0) 
(0.06521012751618552 0.041673954600510675 0.0) 
(0.07557636931592847 0.03972703926605471 0.0) 
(0.08535656429857345 0.035685977767425776 0.0) 
(0.08407027792047278 0.024031740665339817 0.0) 
(0.011673203797005512 0.013118235110356308 0.0) 
(0.011121836357250187 0.02439968297332237 0.0) 
(0.021248926667352515 0.028528888065559657 0.0) 
(0.033045791963150634 0.03038312255420409 0.0) 
(0.044483017298371126 0.03113572491058393 0.0) 
(0.055768810012608784 0.031105369361971853 0.0) 
(0.06719999060935512 0.03028602986925765 0.0) 
(0.07896320904396656 0.028347061044414153 0.0) 
(0.08898590964918918 0.02420221132123771 0.0) 
(0.08842233416888372 0.013061309316567753 0.0) 
(0.011677784106493458 0.007301720453228469 0.0) 
(0.00848791579468842 0.013888442997809605 0.0) 
(0.01889019260550831 0.017113370845161652 0.0) 
(0.031471261953374026 0.018506985257333897 0.0) 
(0.04393229015594007 0.019028876292490608 0.0) 
(0.05624290003454016 0.019003229352243155 0.0) 
(0.06868355687189719 0.018429896614950675 0.0) 
(0.08121294161234097 0.01700001021985676 0.0) 
(0.09155622270890376 0.013784951191155293 0.0) 
(0.08828219421752075 0.0072823055994362465 0.0) 
(0.011809409629439778 0.0023317446688898053 0.0) 
(0.007608184680965665 0.004567058149657854 0.0) 
(0.017756240365986914 0.005692398084929709 0.0) 
(0.03066517118090154 0.006224747209633006 0.0) 
(0.04363016139046247 0.006412005255617578 0.0) 
(0.05648549738399589 0.0063966698214418865 0.0) 
(0.06942759609554405 0.006181946107902543 0.0) 
(0.08229618297237691 0.005633404288201756 0.0) 
(0.0924062336217765 0.004518464652374379 0.0) 
(0.0882073087682907 0.002312517257760147 0.0) 
(0.011843221535319437 -0.0022732684305868346 0.0) 
(0.0076085533840509175 -0.0045525820205854 0.0) 
(0.017758565419884246 -0.00570380142205386 0.0) 
(0.030663849600227455 -0.006243644077898282 0.0) 
(0.04362006472007817 -0.006440469029252908 0.0) 
(0.05646594547182332 -0.006445029264774359 0.0) 
(0.06940207948994004 -0.006256104988751816 0.0) 
(0.08227239009084121 -0.005722051578877385 0.0) 
(0.09239626492274246 -0.004578794957580057 0.0) 
(0.08817001679028758 -0.002296738542094623 0.0) 
(0.011717529419002335 -0.007246642798263248 0.0) 
(0.0084993935475742 -0.013882718817342788 0.0) 
(0.0189044253885304 -0.017119299563108557 0.0) 
(0.031468630911125076 -0.018508360452138658 0.0) 
(0.0439021725507201 -0.01903803963287819 0.0) 
(0.05618323290308151 -0.019034327912947662 0.0) 
(0.0686013277991684 -0.01849683048680017 0.0) 
(0.08113479482298001 -0.01710061476140571 0.0) 
(0.09150514410130837 -0.013878949890685005 0.0) 
(0.08826002177663939 -0.007281199116768146 0.0) 
(0.011812962533005919 -0.013095996366264186 0.0) 
(0.011194469813798557 -0.02441586176636626 0.0) 
(0.021279865777535954 -0.028502118326135126 0.0) 
(0.033042690241989005 -0.03034617368796864 0.0) 
(0.04443446797566363 -0.031104615447436715 0.0) 
(0.05566850231945724 -0.03109654476916718 0.0) 
(0.06705402106575364 -0.030322217710552535 0.0) 
(0.07879809193641234 -0.028461972738766182 0.0) 
(0.08888398019859471 -0.024354566016100847 0.0) 
(0.08822690354938939 -0.013115335194846558 0.0) 
(0.016579057299207323 -0.02429175783639472 0.0) 
(0.015061419181867191 -0.03603429476401874 0.0) 
(0.024802251038201842 -0.03982708103759151 0.0) 
(0.03511473217041409 -0.041655890021650564 0.0) 
(0.0451115698080306 -0.04269269313609124 0.0) 
(0.05500285653570861 -0.04269011181823931 0.0) 
(0.06500619276577198 -0.041639272532656674 0.0) 
(0.07532808567846526 -0.03978721936634761 0.0) 
(0.08505614435092998 -0.035979601669206045 0.0) 
(0.08396659575231719 -0.02416941183339275 0.0) 
(0.015313161332077415 -0.03657974293759478 0.0) 
(0.020211910300511567 -0.04625483467241016 0.0) 
(0.028624910070850742 -0.04681001441017021 0.0) 
(0.03737181023494832 -0.04930284871602581 0.0) 
(0.04584560290610421 -0.0507913061281182 0.0) 
(0.05425843113088395 -0.050790298852336165 0.0) 
(0.06273504836099755 -0.04930078123425525 0.0) 
(0.07147983920737351 -0.04678092176439047 0.0) 
(0.0799457556378576 -0.04620995549822048 0.0) 
(0.08471328219658451 -0.0363605013902165 0.0) 
)
;

boundaryField
{
	bottom
	{
		type	solidTraction;
		value	nonuniform List<vector>
10
(
(0.016443227702038127 0.04230809270244954 0.0) 
(0.02279347285555259 0.04915918738732485 0.0) 
(0.030577568043829485 0.05116266722890576 0.0) 
(0.03849619845626282 0.053119289892292955 0.0) 
(0.04628895815845718 0.05469260621206385 0.0) 
(0.05403827522764203 0.05468234932296273 0.0) 
(0.06187905803240833 0.053106407168608656 0.0) 
(0.0698386079025465 0.05111534787309951 0.0) 
(0.07775290388429693 0.04873007334779691 0.0) 
(0.08474656234920276 0.04154069404439497 0.0) 
)
;
	}
	top
	{
		type	solidTraction;
		value	nonuniform List<vector>
10
(
(0.016337748013170825 -0.04245769904360644 0.0) 
(0.02277248506433133 -0.04910893792060578 0.0) 
(0.03056756811055065 -0.051024567319080054 0.0) 
(0.03845225513002155 -0.052952178877732264 0.0) 
(0.04620501529663913 -0.05452781474568888 0.0) 
(0.053894196218628336 -0.05452853578116791 0.0) 
(0.06164664949585324 -0.05295083977520491 0.0) 
(0.06954043609100478 -0.05100204249935314 0.0) 
(0.0773011978542372 -0.04901958113798207 0.0) 
(0.08362175460815346 -0.04222336745205094 0.0) 
)
;
	}
	left
	{
		type	fixedValue;
		value	uniform (0.0 0.0 0.0);
	}
	right
	{
		type	fixedValue;
		value	uniform (0.1 0.0 0.0);
	}
	frontAndBackPlanes
	{
		type	empty;
	}
}
