/*
 _____     _____     _____ _____ _____ _____    |  High-order Python FOAM
|  |  |___|  _  |_ _|   __|     |  _  |     |   |  Python Version: 3.10
|     | . |   __| | |   __|  |  |     | | | |   |  Code Version: 0.0
|__|__|___|__|  |_  |__|  |_____|__|__|_|_|_|   |  License: GPLv3
                |___|
*/
FoamFile
{
    version     2.0;
    format      ascii;
    class       volScalarField;
    location    "27.0";
    object     p;
}

dimensions      [0 0 0 1 0 0 0]; 

internalField   nonuniform List<scalar>
100
(
411717.1232778537 
19458.06793826505 
-130006.66588015747 
-126055.48569960201 
-101918.36242025271 
-101889.63265819923 
-125257.15576824977 
-127603.96346755254 
29723.2915102845 
400382.38617467316 
997335.5868372174 
453967.95722562016 
175171.894008439 
114113.4388910475 
118784.09952135576 
119344.85162164604 
116048.33959268675 
179109.04312651997 
455002.55760257435 
991071.2936935651 
1126071.4163297636 
613916.8977191573 
296871.51249453763 
200929.2922731486 
187646.49603321918 
188005.45692895824 
202069.79309517707 
298258.95224271977 
614085.4249134414 
1123605.3816183845 
1265820.811671007 
701697.3399452878 
381431.18698559585 
269439.8441947421 
244777.44501507035 
244905.07721119677 
269785.3027655374 
381757.08961864584 
701315.2730868636 
1265710.2104134618 
1328976.2492997064 
753108.2192735241 
424626.11712253926 
307361.09938557225 
277932.1273230246 
277919.66090431355 
307328.09247517004 
424502.7589088001 
752836.7805645337 
1328876.5046654136 
1330178.0516528732 
753271.2134559146 
424486.3663122312 
307154.28135967656 
277715.93244867044 
277649.3887777612 
306974.68516660866 
424131.6766147711 
752683.3946154759 
1329590.497720747 
1269452.3324236402 
702383.4938034513 
380985.24895937904 
268857.86038251716 
244151.30217977203 
244080.64524411916 
268630.9149644868 
380464.8850748743 
700985.2597035961 
1268007.952148824 
1133054.9866777947 
614563.8579643698 
295940.8383824138 
200038.65150221944 
186724.06310951864 
186725.42374760768 
199946.3934572639 
295634.6589680011 
612739.0374288986 
1128264.4550168742 
1006267.5451442939 
453886.13820465864 
174335.3889823882 
113226.19595980657 
118031.95452807921 
118076.82737777631 
113502.31456894375 
174302.670173156 
453200.66458068223 
997500.532760689 
412032.6322357843 
21652.398824281787 
-129990.93613479703 
-125928.74669420003 
-101714.64482254295 
-101870.22982341642 
-126320.95928299623 
-130238.56475192128 
19388.600631641853 
411403.51403562684 
)
;

boundaryField
{
	bottom
	{
		type	pressureTraction;
	}
	top
	{
		type	pressureTraction;
	}
	left
	{
		type	fixedValueFromZeroGrad;
	}
	right
	{
		type	fixedValueFromZeroGrad;
	}
	frontAndBackPlanes
	{
		type	empty;
	}
}
