/*
 _____     _____     _____ _____ _____ _____    |  High-order Python FOAM
|  |  |___|  _  |_ _|   __|     |  _  |     |   |  Python Version: 3.10
|     | . |   __| | |   __|  |  |     | | | |   |  Code Version: 0.0
|__|__|___|__|  |_  |__|  |_____|__|__|_|_|_|   |  License: GPLv3
                |___|
*/
FoamFile
{
    version     2.0;
    format      ascii;
    class       volScalarField;
    location    "27.0";
    object     pCorr;
}

dimensions      [0 0 0 1 0 0 0]; 

internalField   nonuniform List<scalar>
100
(
2868.3274209606384 
-6555.367766414955 
-4529.2086775187345 
-1822.1358576838302 
-514.218129609072 
-524.350336303936 
-1829.9444611951149 
-4480.248570835297 
-6077.954423261619 
2449.981208064777 
13207.634813315293 
-1949.9765246437933 
-2987.2225213694737 
229.47816347441469 
2116.312231139045 
2122.6789286103553 
271.240973905027 
-2837.654187377742 
-1862.0575458497678 
13005.146938425343 
11292.992700229774 
-4017.400384833196 
-6930.329104163098 
-4491.497270522842 
-2701.8391389394783 
-2692.481466530021 
-4452.5982506721475 
-6865.330953894454 
-3973.547213327952 
11209.626807566376 
10777.67489157248 
-6129.5242787338875 
-10046.406814599295 
-8549.716200341545 
-7138.650736250131 
-7130.820532013188 
-8524.87300784382 
-10011.746757143392 
-6113.911319476938 
10782.50631045638 
10610.069709321546 
-6949.280610906488 
-11569.765145524369 
-10571.741552507017 
-9420.101185052461 
-9413.598236204278 
-10552.710309074115 
-11544.644360908242 
-6929.706650481937 
10618.605764181186 
10645.495451782068 
-6948.446293125765 
-11573.805225745069 
-10573.721058554853 
-9419.671132857684 
-9413.671122330274 
-10555.75699426097 
-11551.806936919527 
-6935.706380390188 
10643.086871812426 
10883.842931824089 
-6124.91354876929 
-10062.64031952771 
-8555.078280432599 
-7136.565697015793 
-7130.234570260535 
-8537.188807167406 
-10042.490636602999 
-6130.732689904707 
10854.789121856811 
11502.324726042247 
-4025.253994135636 
-6968.1079801169535 
-4502.888676244766 
-2696.4859331635084 
-2691.303839573922 
-4482.558810891186 
-6939.436734453435 
-4040.6976944751004 
11355.64578126436 
13504.937187152434 
-1994.9807920319872 
-3024.530613292405 
216.86582049601668 
2120.670073056361 
2124.9528893788906 
233.85363271055428 
-2997.0561508831324 
-1981.9656693017835 
13195.696934125175 
2838.2818817241646 
-6497.30643590633 
-4529.644041453655 
-1803.853818164111 
-483.9782823649105 
-489.8494448510405 
-1820.926026366449 
-4547.290312103564 
-6572.645343304209 
2841.841632725647 
)
;

boundaryField
{
	bottom
	{
		type	fixedValue;
		value	uniform 0.0;
	}
	top
	{
		type	fixedValue;
		value	uniform 0.0;
	}
	left
	{
		type	zeroGradient;
	}
	right
	{
		type	zeroGradient;
	}
	frontAndBackPlanes
	{
		type	empty;
	}
}
