/*
 _____     _____     _____ _____ _____ _____    |  High-order Python FOAM
|  |  |___|  _  |_ _|   __|     |  _  |     |   |  Python Version: 3.10
|     | . |   __| | |   __|  |  |     | | | |   |  Code Version: 0.0
|__|__|___|__|  |_  |__|  |_____|__|__|_|_|_|   |  License: GPLv3
                |___|
*/
FoamFile
{
    version     2.0;
    format      ascii;
    class       volScalarField;
    location    "67.0";
    object     pCorr;
}

dimensions      [0 0 0 1 0 0 0]; 

internalField   nonuniform List<scalar>
100
(
-847.6950415435991 
-1632.014747438241 
-433.7724254977653 
-151.98289103680767 
-529.8583649024231 
-532.6075028141829 
-175.72834692807203 
-457.40716323028767 
-1366.7436145160727 
-999.9691031740017 
4420.082509249857 
-838.6384638452364 
124.04321268423917 
941.9362492968221 
869.5311446710328 
864.1754908542313 
930.0247212655852 
156.9212284073949 
-792.0935684747493 
4351.05430754137 
4225.829510358483 
-1257.158707647439 
-701.7245942766173 
349.0740252030317 
444.0952489363685 
440.9913061112352 
345.2503324350845 
-697.7842064946939 
-1251.7800226082363 
4148.452248414439 
4594.458910495979 
-1670.0216266138193 
-1127.360838933935 
12.407830602157958 
213.1698047970047 
211.79169548522782 
9.674437133377557 
-1131.347660764806 
-1685.0536770340882 
4548.154464723364 
4846.867022099215 
-1657.0854329095387 
-1169.3603417682186 
25.27773746842266 
267.5737548877109 
266.9072951760089 
23.75449150720381 
-1173.234040693688 
-1670.125837016026 
4806.374002082345 
4858.1900508703475 
-1660.6576191777779 
-1172.9061581491944 
23.810695055260283 
267.08004285445634 
266.6158210921805 
23.672564889455337 
-1174.2934466712534 
-1671.305975818118 
4822.59894998488 
4630.438453576454 
-1685.9627134419964 
-1141.0561231607744 
8.55085776042753 
211.56144973292973 
211.42014866513642 
10.256261459550469 
-1136.2751103226772 
-1688.5154209070715 
4593.201848188349 
4300.45928838257 
-1285.9119364424942 
-730.0612705940106 
339.3116331489711 
438.5020602116625 
438.16889742507965 
345.07150138403296 
-708.7156871348056 
-1273.7179900011445 
4228.588575887087 
4561.698293613722 
-885.157845302072 
94.50535569311866 
927.3899207559866 
857.9031413848703 
857.2284495114633 
933.8080437455773 
122.70083800130311 
-847.4999497321965 
4410.889648758919 
-889.3825803074556 
-1611.094466220463 
-435.2754590169118 
-143.0969539817098 
-524.7069670973286 
-525.9386718866564 
-144.8716727639172 
-432.2363951888081 
-1629.7390280592683 
-859.2373445910968 
)
;

boundaryField
{
	bottom
	{
		type	fixedValue;
		value	uniform 0.0;
	}
	top
	{
		type	fixedValue;
		value	uniform 0.0;
	}
	left
	{
		type	zeroGradient;
	}
	right
	{
		type	zeroGradient;
	}
	frontAndBackPlanes
	{
		type	empty;
	}
}
