/*
 _____     _____     _____ _____ _____ _____    |  High-order Python FOAM
|  |  |___|  _  |_ _|   __|     |  _  |     |   |  Python Version: 3.10
|     | . |   __| | |   __|  |  |     | | | |   |  Code Version: 0.0
|__|__|___|__|  |_  |__|  |_____|__|__|_|_|_|   |  License: GPLv3
                |___|
*/
FoamFile
{
    version     2.0;
    format      ascii;
    class       volVectorField;
    location    "67.0";
    object     U;
}

dimensions      [0 1 0 0 0 0 0]; 

internalField   nonuniform List<vector>
100
(
(0.015714721638150814 0.03580800013707311 0.0) 
(0.02029902134791206 0.04652344733970586 0.0) 
(0.02860949748445826 0.04705007872286347 0.0) 
(0.037397658652398205 0.049487615887433535 0.0) 
(0.045929093692602306 0.05098144961411054 0.0) 
(0.0543749996369032 0.050969049741760024 0.0) 
(0.06293363487913854 0.04944420226189008 0.0) 
(0.07180867407499833 0.047022536447771046 0.0) 
(0.07991575376717647 0.046099180607293844 0.0) 
(0.08531553574836503 0.0352161108089525 0.0) 
(0.01571303008606549 0.023604299553233354 0.0) 
(0.015116317822805522 0.0360246249480173 0.0) 
(0.024738682266726576 0.03998534369412999 0.0) 
(0.035078314792542566 0.04179935625644761 0.0) 
(0.04516337439519333 0.04281345137661796 0.0) 
(0.055139774996303625 0.04279016265620421 0.0) 
(0.0652445191002487 0.04172210134306731 0.0) 
(0.07558940980222559 0.03980554740042575 0.0) 
(0.0852129031447656 0.03565805152695604 0.0) 
(0.08440117321170894 0.023467342101655877 0.0) 
(0.011500732218988516 0.012952840333986118 0.0) 
(0.01124079088199625 0.0243465965494251 0.0) 
(0.02119013808509814 0.028611469935523947 0.0) 
(0.032959426137605934 0.030480814336841574 0.0) 
(0.044451393242365266 0.03122383912508844 0.0) 
(0.055789783246485494 0.031194067906964464 0.0) 
(0.06727518691142366 0.030385480894438488 0.0) 
(0.07901042564133066 0.028435610209943712 0.0) 
(0.088860944978767 0.024158864305885524 0.0) 
(0.08858844641922282 0.012900683791400377 0.0) 
(0.011533538946219087 0.007203182507137785 0.0) 
(0.008692602038706405 0.013871107268245943 0.0) 
(0.018834800585730803 0.017155613391004663 0.0) 
(0.03136510120064621 0.01857233056574481 0.0) 
(0.04389143856407246 0.01909420068476719 0.0) 
(0.056275880029855625 0.019068931557893472 0.0) 
(0.06878220222770892 0.018496867618811294 0.0) 
(0.08126292831628558 0.01704571215077668 0.0) 
(0.09134941476750498 0.013771811593991557 0.0) 
(0.08842294798356588 0.007183510413947571 0.0) 
(0.011668969913614952 0.002301203010821882 0.0) 
(0.007840256820772712 0.004557805643935815 0.0) 
(0.01771202725271301 0.00570359880616476 0.0) 
(0.03055330972327274 0.006243640910111884 0.0) 
(0.04358578510043905 0.00643222715051188 0.0) 
(0.056524017422387905 0.006416974614349042 0.0) 
(0.06953456894590405 0.006201164531881623 0.0) 
(0.08233771802918494 0.005645311996624725 0.0) 
(0.09217405031864766 0.004509788529472444 0.0) 
(0.088345095904616 0.002281634746620704 0.0) 
(0.011701936144093131 -0.0022473362929082198 0.0) 
(0.007841172883140792 -0.004544315850305372 0.0) 
(0.01771433444992753 -0.0057146267285131365 0.0) 
(0.03055189435974042 -0.00626224150437072 0.0) 
(0.04357598705302796 -0.006460701231740105 0.0) 
(0.05650520390906423 -0.006465585179741617 0.0) 
(0.06951013255600336 -0.006275734812158865 0.0) 
(0.08231493667082625 -0.005734504366722188 0.0) 
(0.09216429605207951 -0.004571902305920648 0.0) 
(0.08830935887284747 -0.002270883814325398 0.0) 
(0.01157160720832701 -0.0071528579606538415 0.0) 
(0.008705684857031376 -0.013866242829558808 0.0) 
(0.018848502584432776 -0.017161282140524193 0.0) 
(0.03136217749683564 -0.018574124118626103 0.0) 
(0.043862314517665105 -0.019104074662380646 0.0) 
(0.05621847687524791 -0.019100922274062467 0.0) 
(0.06870356067218944 -0.018564605752481922 0.0) 
(0.08118842055525485 -0.01714629287313217 0.0) 
(0.0912997072094114 -0.013865699180784976 0.0) 
(0.08840433061240398 -0.0071861377193697205 0.0) 
(0.011637068198551181 -0.012934587057450615 0.0) 
(0.011313410989633088 -0.024362613498374208 0.0) 
(0.021220120474047307 -0.02858668257302925 0.0) 
(0.03295612975899312 -0.030446380893286173 0.0) 
(0.04440481303481293 -0.031195184517329243 0.0) 
(0.055693502097544735 -0.031187553099944785 0.0) 
(0.06713558096483108 -0.0304242998577348 0.0) 
(0.07885397399906789 -0.02855055562284255 0.0) 
(0.08876355569284823 -0.024307416260560082 0.0) 
(0.08839874000864531 -0.012952004934095063 0.0) 
(0.016209009284762665 -0.023707104391281996 0.0) 
(0.015189225750981077 -0.03599228062246041 0.0) 
(0.024773163337812945 -0.03991083203184512 0.0) 
(0.03506569953860081 -0.04170921579553403 0.0) 
(0.045096684599807195 -0.042726325113231135 0.0) 
(0.055013672822011465 -0.042723798253498646 0.0) 
(0.06505066854761725 -0.041693150653816 0.0) 
(0.07535350743273711 -0.039873157781067134 0.0) 
(0.08492806679731965 -0.035941350254939435 0.0) 
(0.08431148542206876 -0.023598474117601558 0.0) 
(0.015701613572472593 -0.03595423228411781 0.0) 
(0.020372834833100747 -0.046441038766972725 0.0) 
(0.028606826713781248 -0.04694063090005255 0.0) 
(0.03736915849305916 -0.049346465991943554 0.0) 
(0.04585670659084827 -0.05084890282391852 0.0) 
(0.054244176238559705 -0.050847812682415595 0.0) 
(0.06273473709660006 -0.049344062193296255 0.0) 
(0.07149600110248726 -0.04691263255890553 0.0) 
(0.07977984294405731 -0.04639809769032241 0.0) 
(0.08432877430974112 -0.03575406073396277 0.0) 
)
;

boundaryField
{
	bottom
	{
		type	solidTraction;
		value	nonuniform List<vector>
10
(
(0.01697909946393286 0.04174239636501368 0.0) 
(0.02305400517506788 0.04919088249003312 0.0) 
(0.0306043967239637 0.05131156631767833 0.0) 
(0.03850793289200928 0.05317494926458003 0.0) 
(0.04629830273936899 0.05474630529597065 0.0) 
(0.05401336223263039 0.0547387676679231 0.0) 
(0.061844482776335113 0.05316364297328621 0.0) 
(0.06978367206496461 0.051249716125014985 0.0) 
(0.07747953142020206 0.04876643973189622 0.0) 
(0.08418099722115162 0.041037739852391564 0.0) 
)
;
	}
	top
	{
		type	solidTraction;
		value	nonuniform List<vector>
10
(
(0.016885130689369882 -0.041880239166555644 0.0) 
(0.023036431172399615 -0.049143604567768034 0.0) 
(0.030596600930134464 -0.051182177056271545 0.0) 
(0.038467347925947006 -0.05301793359938234 0.0) 
(0.046219155666786665 -0.054590315406852455 0.0) 
(0.05387746570427232 -0.05459081968915858 0.0) 
(0.06162948105162908 -0.0530161441945534 0.0) 
(0.06950910319619065 -0.05116010890817076 0.0) 
(0.07703690633425647 -0.049060192414948446 0.0) 
(0.08308200587960834 -0.04166584178073385 0.0) 
)
;
	}
	left
	{
		type	fixedValue;
		value	uniform (0.0 0.0 0.0);
	}
	right
	{
		type	fixedValue;
		value	uniform (0.1 0.0 0.0);
	}
	frontAndBackPlanes
	{
		type	empty;
	}
}
