/*
 _____     _____     _____ _____ _____ _____    |  High-order Python FOAM
|  |  |___|  _  |_ _|   __|     |  _  |     |   |  Python Version: 3.10
|     | . |   __| | |   __|  |  |     | | | |   |  Code Version: 0.0
|__|__|___|__|  |_  |__|  |_____|__|__|_|_|_|   |  License: GPLv3
                |___|
*/
FoamFile
{
    version     2.0;
    format      ascii;
    class       volVectorField;
    location    "25.0";
    object     U;
}

dimensions      [0 1 0 0 0 0 0]; 

internalField   nonuniform List<vector>
100
(
(0.018001133865216134 0.030088274666937892 0.0) 
(0.022527920209859834 0.0478248716490278 0.0) 
(0.02843224592265524 0.049365654311304116 0.0) 
(0.036727239818849844 0.05003607031641251 0.0) 
(0.04558720996853195 0.05018155211442431 0.0) 
(0.054603557346084956 0.05017792421640363 0.0) 
(0.06347186208876798 0.05000213192567758 0.0) 
(0.07180646913163008 0.04926860381126397 0.0) 
(0.07768167487245149 0.04744772387827386 0.0) 
(0.0827586112845323 0.029854626084687093 0.0) 
(0.013305464344669709 0.02018736673942784 0.0) 
(0.015784166517180336 0.03555738672868435 0.0) 
(0.024685511704011575 0.04106156477026621 0.0) 
(0.034722693629336866 0.04243577280363369 0.0) 
(0.04498534395606225 0.0427785108001099 0.0) 
(0.055208848275870165 0.04275875829974727 0.0) 
(0.06548612345707176 0.04236424385816601 0.0) 
(0.07553426288893808 0.04090406414816474 0.0) 
(0.08442451564281966 0.03531985049920391 0.0) 
(0.08672211542016149 0.02010406950926479 0.0) 
(0.010573325315626879 0.011875707272527522 0.0) 
(0.012179210896493143 0.02406317337878913 0.0) 
(0.0211049067351537 0.02945252568478916 0.0) 
(0.03248056040170989 0.03151699487245234 0.0) 
(0.04421729907467518 0.03208136975836523 0.0) 
(0.05593585903493372 0.032055757316557375 0.0) 
(0.06766352702580646 0.031438047823233436 0.0) 
(0.07900960721109787 0.029324229902833267 0.0) 
(0.08787661988486073 0.02394244321909462 0.0) 
(0.0894839545884829 0.01184734691273819 0.0) 
(0.0107325119947454 0.006668251614299724 0.0) 
(0.010307519817595548 0.013852057763643075 0.0) 
(0.01901526700864203 0.017678759057630455 0.0) 
(0.03089359083139429 0.019363301301515982 0.0) 
(0.04363259865535242 0.01991026222696 0.0) 
(0.05646529725075104 0.019889012055733388 0.0) 
(0.06918815507960656 0.01930312361972847 0.0) 
(0.08103309868056906 0.017597525702148835 0.0) 
(0.08970935517206392 0.013784324879265793 0.0) 
(0.0892117818790084 0.0066511489227651524 0.0) 
(0.0109467038489632 0.002139094856242638 0.0) 
(0.009712504916892371 0.004550493222771007 0.0) 
(0.018093280659236294 0.005879377254680244 0.0) 
(0.030139896837934846 0.006519018255691384 0.0) 
(0.0433332748658657 0.006736156106488287 0.0) 
(0.056721852654376244 0.006722181712257771 0.0) 
(0.0699009074905778 0.006481170901293393 0.0) 
(0.08192497248217687 0.005829810220032391 0.0) 
(0.09028875826867133 0.004511067795445877 0.0) 
(0.08905750488772886 0.002122306542266235 0.0) 
(0.010975422527964889 -0.0021087166495075307 0.0) 
(0.00971647228728861 -0.004545283847290921 0.0) 
(0.018096458231496106 -0.005893038478809338 0.0) 
(0.030138907380093057 -0.006542178753926681 0.0) 
(0.04332613824036832 -0.006772556587787088 0.0) 
(0.05670903211262609 -0.006779952969860136 0.0) 
(0.06988501387932188 -0.006562401215004235 0.0) 
(0.08191018356413668 -0.005921131781237263 0.0) 
(0.09028197157083107 -0.004577404401372909 0.0) 
(0.0890287995078108 -0.0021296895311523688 0.0) 
(0.010759300205212933 -0.006641500920195767 0.0) 
(0.010329261926081626 -0.013854271366954732 0.0) 
(0.01902937688328586 -0.017687641504895563 0.0) 
(0.030891539961568317 -0.01937377990811877 0.0) 
(0.04361192995731035 -0.01993331725782081 0.0) 
(0.056426585972768055 -0.01993561120077888 0.0) 
(0.06913804659539963 -0.019380324524991555 0.0) 
(0.08098600850888449 -0.017696179637132943 0.0) 
(0.08967254710397653 -0.013871281876107129 0.0) 
(0.089209026634754 -0.0066664988362635765 0.0) 
(0.010691339389152583 -0.011871583575908612 0.0) 
(0.012251610228590235 -0.02407980512263513 0.0) 
(0.02113322551994347 -0.02943992323679402 0.0) 
(0.03247993989336757 -0.03150272978071155 0.0) 
(0.04418637583941586 -0.03207716957316272 0.0) 
(0.05587271301133986 -0.032076132972840905 0.0) 
(0.06757520650286705 -0.03150074086600898 0.0) 
(0.07891500347167481 -0.029436131705659625 0.0) 
(0.08781114710269669 -0.02406357426799679 0.0) 
(0.08932671028458623 -0.011881901217469964 0.0) 
(0.013673548345090297 -0.020234113848927947 0.0) 
(0.015864125146787984 -0.03554007848217142 0.0) 
(0.024721023606382897 -0.041020771078134816 0.0) 
(0.03472163407140798 -0.04238609199399126 0.0) 
(0.044947284208230104 -0.04273226394383044 0.0) 
(0.055131239003268634 -0.04273593187371783 0.0) 
(0.0653667322166481 -0.042389273718617435 0.0) 
(0.0753849911096548 -0.041016618615628005 0.0) 
(0.08424211337004 -0.03552880498115258 0.0) 
(0.08670611633215294 -0.020192215555624844 0.0) 
(0.018017961216135945 -0.030163682971900217 0.0) 
(0.022599956564021084 -0.04776938294730342 0.0) 
(0.02844952184909956 -0.04930258400893823 0.0) 
(0.036720106027261466 -0.04995151863496485 0.0) 
(0.04555187019038564 -0.05009712492637525 0.0) 
(0.054536137289477066 -0.05010619176761159 0.0) 
(0.06337019438978087 -0.049974496653233134 0.0) 
(0.07164015019616526 -0.049312187400990894 0.0) 
(0.07751859765616051 -0.04777024135293796 0.0) 
(0.08201263277827343 -0.030072177465356904 0.0) 
)
;

boundaryField
{
	bottom
	{
		type	solidTraction;
		value	nonuniform List<vector>
10
(
(0.020580050777247717 0.03595314933416563 0.0) 
(0.025639174526114906 0.049306324023424525 0.0) 
(0.03085871952671406 0.0536238548160598 0.0) 
(0.03785784012297591 0.05380388168337021 0.0) 
(0.04592945123634943 0.05385404169783062 0.0) 
(0.054261354008091935 0.05385291029125314 0.0) 
(0.062345027447541654 0.05378007825904874 0.0) 
(0.06937574143031972 0.05349407719553867 0.0) 
(0.07478987671388947 0.048980687862726295 0.0) 
(0.08030702214602131 0.035647563069040315 0.0) 
)
;
	}
	top
	{
		type	solidTraction;
		value	nonuniform List<vector>
10
(
(0.020539995597396953 -0.03601897977363005 0.0) 
(0.025647653070206514 -0.049269027567138815 0.0) 
(0.03087375524635941 -0.05354493752405419 0.0) 
(0.03784679344658843 -0.05370670814234802 0.0) 
(0.04589444903238462 -0.053752241862407846 0.0) 
(0.05419841741714396 -0.053763508449183435 0.0) 
(0.06224365743732289 -0.053732757656229695 0.0) 
(0.06921704439931578 -0.05356277457553898 0.0) 
(0.07441303783366834 -0.04925134754004478 0.0) 
(0.07944375334582095 -0.03592554950820675 0.0) 
)
;
	}
	left
	{
		type	fixedValue;
		value	uniform (0.0 0.0 0.0);
	}
	right
	{
		type	fixedValue;
		value	uniform (0.1 0.0 0.0);
	}
	frontAndBackPlanes
	{
		type	empty;
	}
}
