/*
 _____     _____     _____ _____ _____ _____    |  High-order Python FOAM
|  |  |___|  _  |_ _|   __|     |  _  |     |   |  Python Version: 3.10
|     | . |   __| | |   __|  |  |     | | | |   |  Code Version: 0.0
|__|__|___|__|  |_  |__|  |_____|__|__|_|_|_|   |  License: GPLv3
                |___|
*/
FoamFile
{
    version     2.0;
    format      ascii;
    class       volScalarField;
    location    "89.0";
    object     p;
}

dimensions      [0 0 0 1 0 0 0]; 

internalField   nonuniform List<scalar>
100
(
385262.1628627582 
-155749.6882320674 
-204420.62711056368 
-153116.72597191017 
-136885.5205104017 
-137150.7024058419 
-153632.02358835423 
-202505.76057528585 
-125665.0752879544 
361023.5394050926 
1366570.3949157519 
377362.7455397906 
155435.24247134756 
183618.7817221836 
206558.38307352274 
206851.03315074154 
185343.76694310945 
162962.17236840082 
382078.3071614553 
1354420.1786160176 
1477300.7847314873 
507988.2174273082 
208118.84096376275 
210184.3827584573 
227739.79521945832 
227964.43366421768 
211406.43427429008 
210324.22920493418 
508899.2195487183 
1469842.8149066586 
1643346.6317028552 
567078.1620468232 
253764.75910892192 
237721.8503026852 
248834.3081799672 
248885.12627632814 
237965.40973904924 
253965.35186409633 
565817.5191731604 
1640712.3062788646 
1726093.4294169308 
619596.0882498203 
289002.8050274271 
267082.12461153726 
274465.8472656074 
274406.75009261776 
266948.3985453554 
288624.5120968483 
618526.9082754927 
1723777.8740630082 
1728181.132136178 
619489.8224946386 
288554.3834010802 
266724.1565068445 
274211.61990084726 
274140.9914473817 
266602.72350574896 
288162.18809603545 
618264.49468929 
1725597.5573045579 
1649767.2550281845 
566721.7357841284 
252196.57408123236 
236727.8163651071 
248107.84206477538 
248118.51171037214 
236830.11921167286 
252175.13009577026 
565139.9538276409 
1646108.722325173 
1490141.2696358298 
506699.8901069479 
204962.26373124562 
208445.59123489258 
226552.60172400306 
226687.96969380204 
209132.87280553937 
206386.47452310342 
505602.1347692561 
1480202.2631227684 
1385909.933467714 
373995.7151678718 
152339.72415648674 
181649.39200725287 
205239.87713735862 
205432.96529485757 
182806.29226808492 
154551.87035313743 
375792.8925218727 
1366096.2758000172 
382937.9918698598 
-152034.3206605242 
-204654.71113591752 
-152426.71453365273 
-136049.67620094353 
-136210.10157144166 
-152800.18869392187 
-204625.95140342094 
-155822.11989069814 
384032.91134260304 
)
;

boundaryField
{
	bottom
	{
		type	pressureTraction;
	}
	top
	{
		type	pressureTraction;
	}
	left
	{
		type	fixedValueFromZeroGrad;
	}
	right
	{
		type	fixedValueFromZeroGrad;
	}
	frontAndBackPlanes
	{
		type	empty;
	}
}
