/*
 _____     _____     _____ _____ _____ _____    |  High-order Python FOAM
|  |  |___|  _  |_ _|   __|     |  _  |     |   |  Python Version: 3.10
|     | . |   __| | |   __|  |  |     | | | |   |  Code Version: 0.0
|__|__|___|__|  |_  |__|  |_____|__|__|_|_|_|   |  License: GPLv3
                |___|
*/
FoamFile
{
    version     2.0;
    format      ascii;
    class       volScalarField;
    location    "89.0";
    object     pCorr;
}

dimensions      [0 0 0 1 0 0 0]; 

internalField   nonuniform List<scalar>
100
(
-687.8347678922069 
-698.6672346658977 
-191.92491283118568 
-72.1014984813085 
-293.75360455422003 
-292.6322256267482 
-86.35522369722246 
-214.07546158183888 
-538.0959680880566 
-771.6844981342275 
2631.2914083644323 
-546.4084049076333 
29.71003372568836 
461.97796096918637 
409.35331204416553 
407.6010857904116 
455.30310666262886 
45.34490016142411 
-520.4923241844692 
2588.974106130907 
2352.1418933922296 
-871.7185170055053 
-440.65435124542694 
162.92536881900253 
168.63797701955028 
167.6758708378595 
161.98320035771323 
-437.3906857834195 
-868.2209650721312 
2295.9507308142543 
2562.528059447386 
-1157.0485995267602 
-651.4554402111825 
18.394459145477704 
58.87137814311455 
58.66008834423102 
18.414270938783417 
-650.8927578591324 
-1163.1887421520569 
2526.354039852601 
2709.99565990187 
-1147.0277958856736 
-651.5478325795351 
55.25934589933857 
108.31471925055263 
108.23555611508424 
55.617182997252485 
-650.8412189217937 
-1151.552775896484 
2679.810675588649 
2716.607441832432 
-1149.5835382080622 
-653.5702650737068 
54.778814033106244 
108.2654755329128 
108.00746631564462 
55.22545155453125 
-652.1851959762876 
-1153.1689797209162 
2690.5362355383677 
2583.71049628328 
-1169.2448210207865 
-659.5062143107177 
17.415955689928516 
58.49035721296443 
58.06718623943425 
18.093010887128987 
-655.0526856434532 
-1167.103653061202 
2556.552230441623 
2396.096540909362 
-892.6622945069066 
-458.01782284517253 
158.52553402424206 
165.39141920940074 
164.49858699215085 
160.86283028025264 
-443.4492454250277 
-880.8709282394489 
2348.96755810207 
2723.838246560896 
-578.1012263882685 
10.810818732007547 
453.7834525791036 
401.53736511749173 
400.3778367977692 
456.3276810519351 
28.97292901518506 
-550.8150474668726 
2624.376750492771 
-718.4455556834388 
-685.4059530794485 
-192.36905392207274 
-64.57484779098434 
-290.2760258418434 
-291.9009054677075 
-67.01100721987557 
-190.25607320252448 
-695.8485310255103 
-694.4488827900253 
)
;

boundaryField
{
	bottom
	{
		type	fixedValue;
		value	uniform 0.0;
	}
	top
	{
		type	fixedValue;
		value	uniform 0.0;
	}
	left
	{
		type	zeroGradient;
	}
	right
	{
		type	zeroGradient;
	}
	frontAndBackPlanes
	{
		type	empty;
	}
}
