/*--------------------------------*- C++ -*----------------------------------*\
| =========                 |                                                 |
| \\      /  F ield         | foam-extend: Open Source CFD                    |
|  \\    /   O peration     | Version:     4.1                                |
|   \\  /    A nd           | Web:         http://www.foam-extend.org         |
|    \\/     M anipulation  |                                                 |
\*---------------------------------------------------------------------------*/
FoamFile
{
    version     2.0;
    format      ascii;
    class       volVectorField;
    location    "1";
    object      D;
}
// * * * * * * * * * * * * * * * * * * * * * * * * * * * * * * * * * * * * * //

dimensions      [0 1 0 0 0 0 0];

internalField   nonuniform List<vector> 
12500
(
(-1.20622e-06 -1.23598e-06 0)
(-3.28787e-06 -2.50058e-06 0)
(-5.36281e-06 -3.47443e-06 0)
(-7.35084e-06 -4.38245e-06 0)
(-9.34405e-06 -5.33084e-06 0)
(-1.13266e-05 -6.36489e-06 0)
(-1.33187e-05 -7.51586e-06 0)
(-1.53153e-05 -8.80115e-06 0)
(-1.73197e-05 -1.02334e-05 0)
(-1.9329e-05 -1.18203e-05 0)
(-2.13426e-05 -1.35673e-05 0)
(-2.33588e-05 -1.54777e-05 0)
(-2.53764e-05 -1.75536e-05 0)
(-2.73942e-05 -1.97965e-05 0)
(-2.94113e-05 -2.2207e-05 0)
(-3.14268e-05 -2.47855e-05 0)
(-3.34402e-05 -2.75322e-05 0)
(-3.5451e-05 -3.04469e-05 0)
(-3.74587e-05 -3.35294e-05 0)
(-3.94631e-05 -3.67795e-05 0)
(-4.1464e-05 -4.01969e-05 0)
(-4.34611e-05 -4.37811e-05 0)
(-4.54544e-05 -4.75319e-05 0)
(-4.74438e-05 -5.14488e-05 0)
(-4.94291e-05 -5.55315e-05 0)
(-5.14104e-05 -5.97796e-05 0)
(-5.33876e-05 -6.41928e-05 0)
(-5.53607e-05 -6.87706e-05 0)
(-5.73296e-05 -7.35128e-05 0)
(-5.92944e-05 -7.84189e-05 0)
(-6.1255e-05 -8.34886e-05 0)
(-6.32114e-05 -8.87215e-05 0)
(-6.51637e-05 -9.41174e-05 0)
(-6.71118e-05 -9.96757e-05 0)
(-6.90558e-05 -0.000105396 0)
(-7.09955e-05 -0.000111279 0)
(-7.29311e-05 -0.000117323 0)
(-7.48625e-05 -0.000123528 0)
(-7.67898e-05 -0.000129893 0)
(-7.87129e-05 -0.000136419 0)
(-8.06318e-05 -0.000143106 0)
(-8.25465e-05 -0.000149952 0)
(-8.44571e-05 -0.000156957 0)
(-8.63635e-05 -0.000164122 0)
(-8.82657e-05 -0.000171445 0)
(-9.01637e-05 -0.000178926 0)
(-9.20576e-05 -0.000186566 0)
(-9.39473e-05 -0.000194363 0)
(-9.58328e-05 -0.000202317 0)
(-9.77142e-05 -0.000210429 0)
(-9.95914e-05 -0.000218697 0)
(-0.000101464 -0.000227121 0)
(-0.000103333 -0.000235701 0)
(-0.000105198 -0.000244437 0)
(-0.000107058 -0.000253328 0)
(-0.000108915 -0.000262374 0)
(-0.000110767 -0.000271574 0)
(-0.000112615 -0.000280929 0)
(-0.000114459 -0.000290437 0)
(-0.000116298 -0.000300099 0)
(-0.000118134 -0.000309914 0)
(-0.000119965 -0.000319882 0)
(-0.000121792 -0.000330002 0)
(-0.000123615 -0.000340274 0)
(-0.000125434 -0.000350698 0)
(-0.000127249 -0.000361273 0)
(-0.000129059 -0.000372 0)
(-0.000130865 -0.000382877 0)
(-0.000132668 -0.000393905 0)
(-0.000134466 -0.000405082 0)
(-0.000136259 -0.000416409 0)
(-0.000138049 -0.000427886 0)
(-0.000139834 -0.000439511 0)
(-0.000141616 -0.000451285 0)
(-0.000143393 -0.000463207 0)
(-0.000145166 -0.000475278 0)
(-0.000146934 -0.000487496 0)
(-0.000148699 -0.000499861 0)
(-0.000150459 -0.000512372 0)
(-0.000152216 -0.000525031 0)
(-0.000153968 -0.000537835 0)
(-0.000155715 -0.000550786 0)
(-0.000157459 -0.000563882 0)
(-0.000159199 -0.000577123 0)
(-0.000160934 -0.000590509 0)
(-0.000162665 -0.000604039 0)
(-0.000164392 -0.000617713 0)
(-0.000166115 -0.000631531 0)
(-0.000167834 -0.000645493 0)
(-0.000169548 -0.000659598 0)
(-0.000171259 -0.000673845 0)
(-0.000172965 -0.000688234 0)
(-0.000174667 -0.000702766 0)
(-0.000176365 -0.000717439 0)
(-0.000178059 -0.000732254 0)
(-0.000179748 -0.00074721 0)
(-0.000181433 -0.000762306 0)
(-0.000183115 -0.000777542 0)
(-0.000184792 -0.000792919 0)
(-0.000186464 -0.000808435 0)
(-0.000188133 -0.00082409 0)
(-0.000189798 -0.000839884 0)
(-0.000191458 -0.000855817 0)
(-0.000193114 -0.000871887 0)
(-0.000194766 -0.000888096 0)
(-0.000196414 -0.000904442 0)
(-0.000198057 -0.000920925 0)
(-0.000199697 -0.000937546 0)
(-0.000201332 -0.000954302 0)
(-0.000202963 -0.000971195 0)
(-0.00020459 -0.000988223 0)
(-0.000206213 -0.00100539 0)
(-0.000207832 -0.00102269 0)
(-0.000209446 -0.00104012 0)
(-0.000211057 -0.00105769 0)
(-0.000212663 -0.00107539 0)
(-0.000214265 -0.00109322 0)
(-0.000215863 -0.00111119 0)
(-0.000217456 -0.0011293 0)
(-0.000219046 -0.00114753 0)
(-0.000220631 -0.0011659 0)
(-0.000222212 -0.0011844 0)
(-0.000223789 -0.00120303 0)
(-0.000225362 -0.00122179 0)
(-0.00022693 -0.00124068 0)
(-0.000228495 -0.0012597 0)
(-0.000230055 -0.00127886 0)
(-0.000231611 -0.00129814 0)
(-0.000233163 -0.00131755 0)
(-0.000234711 -0.00133709 0)
(-0.000236255 -0.00135677 0)
(-0.000237794 -0.00137656 0)
(-0.000239329 -0.00139649 0)
(-0.00024086 -0.00141655 0)
(-0.000242387 -0.00143673 0)
(-0.00024391 -0.00145704 0)
(-0.000245429 -0.00147747 0)
(-0.000246943 -0.00149804 0)
(-0.000248453 -0.00151873 0)
(-0.000249959 -0.00153954 0)
(-0.000251461 -0.00156048 0)
(-0.000252959 -0.00158154 0)
(-0.000254453 -0.00160273 0)
(-0.000255942 -0.00162405 0)
(-0.000257427 -0.00164548 0)
(-0.000258908 -0.00166704 0)
(-0.000260385 -0.00168873 0)
(-0.000261858 -0.00171054 0)
(-0.000263326 -0.00173247 0)
(-0.000264791 -0.00175452 0)
(-0.000266251 -0.00177669 0)
(-0.000267707 -0.00179899 0)
(-0.000269159 -0.0018214 0)
(-0.000270607 -0.00184394 0)
(-0.00027205 -0.0018666 0)
(-0.00027349 -0.00188938 0)
(-0.000274925 -0.00191227 0)
(-0.000276356 -0.00193529 0)
(-0.000277783 -0.00195843 0)
(-0.000279205 -0.00198168 0)
(-0.000280624 -0.00200505 0)
(-0.000282038 -0.00202855 0)
(-0.000283448 -0.00205216 0)
(-0.000284854 -0.00207588 0)
(-0.000286256 -0.00209972 0)
(-0.000287654 -0.00212368 0)
(-0.000289047 -0.00214776 0)
(-0.000290437 -0.00217195 0)
(-0.000291822 -0.00219626 0)
(-0.000293203 -0.00222068 0)
(-0.00029458 -0.00224522 0)
(-0.000295952 -0.00226987 0)
(-0.000297321 -0.00229464 0)
(-0.000298685 -0.00231952 0)
(-0.000300045 -0.00234452 0)
(-0.000301401 -0.00236962 0)
(-0.000302753 -0.00239484 0)
(-0.000304101 -0.00242018 0)
(-0.000305444 -0.00244562 0)
(-0.000306783 -0.00247118 0)
(-0.000308118 -0.00249685 0)
(-0.000309449 -0.00252262 0)
(-0.000310776 -0.00254851 0)
(-0.000312099 -0.00257451 0)
(-0.000313417 -0.00260062 0)
(-0.000314731 -0.00262684 0)
(-0.000316042 -0.00265317 0)
(-0.000317347 -0.00267961 0)
(-0.000318649 -0.00270616 0)
(-0.000319947 -0.00273281 0)
(-0.00032124 -0.00275958 0)
(-0.000322529 -0.00278645 0)
(-0.000323815 -0.00281343 0)
(-0.000325095 -0.00284051 0)
(-0.000326372 -0.0028677 0)
(-0.000327645 -0.002895 0)
(-0.000328913 -0.0029224 0)
(-0.000330177 -0.00294991 0)
(-0.000331437 -0.00297753 0)
(-0.000332693 -0.00300525 0)
(-0.000333945 -0.00303307 0)
(-0.000335192 -0.003061 0)
(-0.000336436 -0.00308903 0)
(-0.000337675 -0.00311717 0)
(-0.00033891 -0.0031454 0)
(-0.000340141 -0.00317374 0)
(-0.000341368 -0.00320219 0)
(-0.00034259 -0.00323073 0)
(-0.000343809 -0.00325938 0)
(-0.000345023 -0.00328813 0)
(-0.000346233 -0.00331698 0)
(-0.000347439 -0.00334593 0)
(-0.00034864 -0.00337498 0)
(-0.000349838 -0.00340413 0)
(-0.000351031 -0.00343338 0)
(-0.00035222 -0.00346273 0)
(-0.000353405 -0.00349218 0)
(-0.000354586 -0.00352172 0)
(-0.000355763 -0.00355137 0)
(-0.000356935 -0.00358111 0)
(-0.000358104 -0.00361095 0)
(-0.000359268 -0.00364089 0)
(-0.000360428 -0.00367092 0)
(-0.000361584 -0.00370105 0)
(-0.000362735 -0.00373128 0)
(-0.000363883 -0.0037616 0)
(-0.000365026 -0.00379202 0)
(-0.000366165 -0.00382253 0)
(-0.0003673 -0.00385314 0)
(-0.000368431 -0.00388385 0)
(-0.000369558 -0.00391464 0)
(-0.00037068 -0.00394553 0)
(-0.000371799 -0.00397652 0)
(-0.000372913 -0.00400759 0)
(-0.000374023 -0.00403876 0)
(-0.000375129 -0.00407002 0)
(-0.00037623 -0.00410138 0)
(-0.000377328 -0.00413282 0)
(-0.000378421 -0.00416436 0)
(-0.00037951 -0.00419599 0)
(-0.000380595 -0.00422771 0)
(-0.000381676 -0.00425951 0)
(-0.000382753 -0.00429141 0)
(-0.000383825 -0.0043234 0)
(-0.000384893 -0.00435548 0)
(-0.000385958 -0.00438764 0)
(-0.000387018 -0.0044199 0)
(-0.000388073 -0.00445224 0)
(-0.000389125 -0.00448467 0)
(-0.000390172 -0.00451719 0)
(-0.000391216 -0.00454979 0)
(-0.000392255 -0.00458248 0)
(-0.00039329 -0.00461526 0)
(-0.00039432 -0.00464813 0)
(-0.000395347 -0.00468108 0)
(-0.00039637 -0.00471411 0)
(-0.000397388 -0.00474723 0)
(-0.000398402 -0.00478044 0)
(-0.000399412 -0.00481373 0)
(-0.000400418 -0.0048471 0)
(-0.000401419 -0.00488056 0)
(-0.000402417 -0.0049141 0)
(-0.00040341 -0.00494772 0)
(-0.000404399 -0.00498143 0)
(-0.000405384 -0.00501521 0)
(-0.000406365 -0.00504908 0)
(-0.000407341 -0.00508304 0)
(-0.000408314 -0.00511707 0)
(-0.000409282 -0.00515118 0)
(-0.000410246 -0.00518538 0)
(-0.000411206 -0.00521965 0)
(-0.000412161 -0.005254 0)
(-0.000413113 -0.00528844 0)
(-0.00041406 -0.00532295 0)
(-0.000415004 -0.00535754 0)
(-0.000415943 -0.00539221 0)
(-0.000416878 -0.00542696 0)
(-0.000417808 -0.00546179 0)
(-0.000418735 -0.00549669 0)
(-0.000419657 -0.00553167 0)
(-0.000420575 -0.00556673 0)
(-0.000421489 -0.00560186 0)
(-0.000422399 -0.00563707 0)
(-0.000423305 -0.00567235 0)
(-0.000424206 -0.00570771 0)
(-0.000425104 -0.00574315 0)
(-0.000425997 -0.00577866 0)
(-0.000426886 -0.00581424 0)
(-0.000427771 -0.0058499 0)
(-0.000428651 -0.00588563 0)
(-0.000429528 -0.00592144 0)
(-0.0004304 -0.00595731 0)
(-0.000431268 -0.00599326 0)
(-0.000432132 -0.00602929 0)
(-0.000432992 -0.00606538 0)
(-0.000433848 -0.00610154 0)
(-0.000434699 -0.00613778 0)
(-0.000435546 -0.00617409 0)
(-0.000436389 -0.00621047 0)
(-0.000437228 -0.00624691 0)
(-0.000438063 -0.00628343 0)
(-0.000438894 -0.00632002 0)
(-0.00043972 -0.00635668 0)
(-0.000440542 -0.0063934 0)
(-0.00044136 -0.00643019 0)
(-0.000442174 -0.00646705 0)
(-0.000442984 -0.00650398 0)
(-0.000443789 -0.00654098 0)
(-0.000444591 -0.00657804 0)
(-0.000445388 -0.00661517 0)
(-0.000446181 -0.00665237 0)
(-0.00044697 -0.00668963 0)
(-0.000447755 -0.00672696 0)
(-0.000448535 -0.00676435 0)
(-0.000449311 -0.00680181 0)
(-0.000450084 -0.00683933 0)
(-0.000450852 -0.00687691 0)
(-0.000451615 -0.00691456 0)
(-0.000452375 -0.00695228 0)
(-0.00045313 -0.00699005 0)
(-0.000453882 -0.00702789 0)
(-0.000454629 -0.0070658 0)
(-0.000455372 -0.00710376 0)
(-0.000456111 -0.00714179 0)
(-0.000456845 -0.00717987 0)
(-0.000457576 -0.00721802 0)
(-0.000458302 -0.00725623 0)
(-0.000459024 -0.0072945 0)
(-0.000459742 -0.00733283 0)
(-0.000460456 -0.00737122 0)
(-0.000461166 -0.00740966 0)
(-0.000461871 -0.00744817 0)
(-0.000462572 -0.00748674 0)
(-0.000463269 -0.00752536 0)
(-0.000463962 -0.00756404 0)
(-0.000464651 -0.00760278 0)
(-0.000465336 -0.00764158 0)
(-0.000466016 -0.00768043 0)
(-0.000466692 -0.00771934 0)
(-0.000467365 -0.00775831 0)
(-0.000468032 -0.00779733 0)
(-0.000468696 -0.00783641 0)
(-0.000469356 -0.00787554 0)
(-0.000470011 -0.00791473 0)
(-0.000470662 -0.00795397 0)
(-0.000471309 -0.00799327 0)
(-0.000471952 -0.00803262 0)
(-0.000472591 -0.00807202 0)
(-0.000473226 -0.00811148 0)
(-0.000473856 -0.00815098 0)
(-0.000474482 -0.00819055 0)
(-0.000475104 -0.00823016 0)
(-0.000475722 -0.00826982 0)
(-0.000476336 -0.00830954 0)
(-0.000476945 -0.00834931 0)
(-0.000477551 -0.00838912 0)
(-0.000478152 -0.00842899 0)
(-0.000478749 -0.00846891 0)
(-0.000479342 -0.00850888 0)
(-0.00047993 -0.0085489 0)
(-0.000480515 -0.00858896 0)
(-0.000481095 -0.00862908 0)
(-0.000481671 -0.00866924 0)
(-0.000482243 -0.00870945 0)
(-0.000482811 -0.00874971 0)
(-0.000483375 -0.00879001 0)
(-0.000483934 -0.00883036 0)
(-0.000484489 -0.00887076 0)
(-0.00048504 -0.00891121 0)
(-0.000485587 -0.0089517 0)
(-0.00048613 -0.00899223 0)
(-0.000486669 -0.00903281 0)
(-0.000487203 -0.00907344 0)
(-0.000487733 -0.00911411 0)
(-0.000488259 -0.00915482 0)
(-0.000488781 -0.00919558 0)
(-0.000489299 -0.00923638 0)
(-0.000489813 -0.00927722 0)
(-0.000490322 -0.00931811 0)
(-0.000490827 -0.00935904 0)
(-0.000491328 -0.00940001 0)
(-0.000491825 -0.00944102 0)
(-0.000492318 -0.00948207 0)
(-0.000492807 -0.00952317 0)
(-0.000493291 -0.0095643 0)
(-0.000493771 -0.00960547 0)
(-0.000494247 -0.00964669 0)
(-0.000494719 -0.00968794 0)
(-0.000495187 -0.00972924 0)
(-0.00049565 -0.00977057 0)
(-0.000496109 -0.00981194 0)
(-0.000496565 -0.00985335 0)
(-0.000497016 -0.00989479 0)
(-0.000497462 -0.00993628 0)
(-0.000497905 -0.0099778 0)
(-0.000498343 -0.0100194 0)
(-0.000498778 -0.010061 0)
(-0.000499208 -0.0101026 0)
(-0.000499634 -0.0101442 0)
(-0.000500055 -0.0101859 0)
(-0.000500473 -0.0102277 0)
(-0.000500886 -0.0102695 0)
(-0.000501296 -0.0103113 0)
(-0.000501701 -0.0103531 0)
(-0.000502101 -0.010395 0)
(-0.000502498 -0.0104369 0)
(-0.000502891 -0.0104788 0)
(-0.000503279 -0.0105208 0)
(-0.000503663 -0.0105628 0)
(-0.000504043 -0.0106048 0)
(-0.000504419 -0.0106469 0)
(-0.000504791 -0.010689 0)
(-0.000505158 -0.0107311 0)
(-0.000505521 -0.0107733 0)
(-0.00050588 -0.0108155 0)
(-0.000506235 -0.0108577 0)
(-0.000506586 -0.0108999 0)
(-0.000506933 -0.0109422 0)
(-0.000507275 -0.0109845 0)
(-0.000507613 -0.0110268 0)
(-0.000507947 -0.0110692 0)
(-0.000508277 -0.0111116 0)
(-0.000508603 -0.011154 0)
(-0.000508924 -0.0111965 0)
(-0.000509242 -0.0112389 0)
(-0.000509555 -0.0112814 0)
(-0.000509864 -0.011324 0)
(-0.000510169 -0.0113665 0)
(-0.000510469 -0.0114091 0)
(-0.000510766 -0.0114517 0)
(-0.000511058 -0.0114943 0)
(-0.000511346 -0.0115369 0)
(-0.00051163 -0.0115796 0)
(-0.00051191 -0.0116223 0)
(-0.000512185 -0.011665 0)
(-0.000512457 -0.0117078 0)
(-0.000512724 -0.0117505 0)
(-0.000512987 -0.0117933 0)
(-0.000513246 -0.0118361 0)
(-0.000513501 -0.011879 0)
(-0.000513751 -0.0119218 0)
(-0.000513997 -0.0119647 0)
(-0.00051424 -0.0120076 0)
(-0.000514478 -0.0120505 0)
(-0.000514711 -0.0120934 0)
(-0.000514941 -0.0121364 0)
(-0.000515167 -0.0121793 0)
(-0.000515388 -0.0122223 0)
(-0.000515605 -0.0122653 0)
(-0.000515818 -0.0123083 0)
(-0.000516027 -0.0123514 0)
(-0.000516231 -0.0123944 0)
(-0.000516432 -0.0124375 0)
(-0.000516628 -0.0124806 0)
(-0.00051682 -0.0125237 0)
(-0.000517008 -0.0125668 0)
(-0.000517192 -0.01261 0)
(-0.000517371 -0.0126531 0)
(-0.000517547 -0.0126963 0)
(-0.000517718 -0.0127395 0)
(-0.000517885 -0.0127827 0)
(-0.000518048 -0.0128259 0)
(-0.000518206 -0.0128691 0)
(-0.000518361 -0.0129123 0)
(-0.000518511 -0.0129556 0)
(-0.000518657 -0.0129989 0)
(-0.000518799 -0.0130421 0)
(-0.000518937 -0.0130854 0)
(-0.000519071 -0.0131287 0)
(-0.0005192 -0.013172 0)
(-0.000519325 -0.0132153 0)
(-0.000519446 -0.0132587 0)
(-0.000519563 -0.013302 0)
(-0.000519676 -0.0133454 0)
(-0.000519785 -0.0133887 0)
(-0.000519889 -0.0134321 0)
(-0.000519989 -0.0134755 0)
(-0.000520085 -0.0135188 0)
(-0.000520177 -0.0135622 0)
(-0.000520265 -0.0136056 0)
(-0.000520348 -0.013649 0)
(-0.000520428 -0.0136925 0)
(-0.000520503 -0.0137359 0)
(-0.000520574 -0.0137793 0)
(-0.000520641 -0.0138227 0)
(-0.000520704 -0.0138662 0)
(-0.000520763 -0.0139096 0)
(-0.000520818 -0.0139531 0)
(-0.00052087 -0.0139965 0)
(-0.000520917 -0.01404 0)
(-0.000520961 -0.0140834 0)
(-0.000521001 -0.0141269 0)
(-0.000521038 -0.0141703 0)
(-0.000521072 -0.0142138 0)
(-0.000521103 -0.0142573 0)
(-0.000521131 -0.0143008 0)
(-0.000521156 -0.0143443 0)
(-0.000521179 -0.0143877 0)
(-0.000521198 -0.0144313 0)
(-0.000521214 -0.0144748 0)
(-8.63662e-07 -6.59615e-07 0)
(-2.70074e-06 -1.69128e-06 0)
(-4.60359e-06 -2.63309e-06 0)
(-6.47701e-06 -3.5423e-06 0)
(-8.35253e-06 -4.49099e-06 0)
(-1.02146e-05 -5.52518e-06 0)
(-1.20757e-05 -6.67437e-06 0)
(-1.39333e-05 -7.95789e-06 0)
(-1.57909e-05 -9.38833e-06 0)
(-1.76477e-05 -1.09739e-05 0)
(-1.95043e-05 -1.27199e-05 0)
(-2.13602e-05 -1.46297e-05 0)
(-2.32152e-05 -1.67056e-05 0)
(-2.50687e-05 -1.89487e-05 0)
(-2.69203e-05 -2.13599e-05 0)
(-2.87697e-05 -2.39393e-05 0)
(-3.06165e-05 -2.6687e-05 0)
(-3.24605e-05 -2.96029e-05 0)
(-3.43014e-05 -3.26868e-05 0)
(-3.61391e-05 -3.59384e-05 0)
(-3.79734e-05 -3.93573e-05 0)
(-3.98042e-05 -4.29431e-05 0)
(-4.16314e-05 -4.66955e-05 0)
(-4.3455e-05 -5.06141e-05 0)
(-4.52749e-05 -5.46985e-05 0)
(-4.7091e-05 -5.89483e-05 0)
(-4.89034e-05 -6.33632e-05 0)
(-5.07121e-05 -6.79428e-05 0)
(-5.25169e-05 -7.26867e-05 0)
(-5.43179e-05 -7.75946e-05 0)
(-5.61151e-05 -8.2666e-05 0)
(-5.79085e-05 -8.79007e-05 0)
(-5.96981e-05 -9.32983e-05 0)
(-6.14839e-05 -9.88584e-05 0)
(-6.32658e-05 -0.000104581 0)
(-6.50439e-05 -0.000110465 0)
(-6.68182e-05 -0.00011651 0)
(-6.85887e-05 -0.000122717 0)
(-7.03553e-05 -0.000129085 0)
(-7.21181e-05 -0.000135613 0)
(-7.38771e-05 -0.000142301 0)
(-7.56323e-05 -0.000149149 0)
(-7.73836e-05 -0.000156156 0)
(-7.91312e-05 -0.000163322 0)
(-8.08748e-05 -0.000170647 0)
(-8.26147e-05 -0.00017813 0)
(-8.43508e-05 -0.000185771 0)
(-8.6083e-05 -0.00019357 0)
(-8.78114e-05 -0.000201526 0)
(-8.9536e-05 -0.00020964 0)
(-9.12567e-05 -0.000217909 0)
(-9.29737e-05 -0.000226335 0)
(-9.46868e-05 -0.000234917 0)
(-9.63961e-05 -0.000243655 0)
(-9.81015e-05 -0.000252547 0)
(-9.98032e-05 -0.000261595 0)
(-0.000101501 -0.000270797 0)
(-0.000103195 -0.000280153 0)
(-0.000104885 -0.000289663 0)
(-0.000106571 -0.000299327 0)
(-0.000108254 -0.000309144 0)
(-0.000109933 -0.000319113 0)
(-0.000111608 -0.000329235 0)
(-0.000113279 -0.000339509 0)
(-0.000114946 -0.000349935 0)
(-0.000116609 -0.000360512 0)
(-0.000118269 -0.00037124 0)
(-0.000119925 -0.000382119 0)
(-0.000121577 -0.000393149 0)
(-0.000123225 -0.000404328 0)
(-0.000124869 -0.000415657 0)
(-0.000126509 -0.000427135 0)
(-0.000128146 -0.000438762 0)
(-0.000129779 -0.000450538 0)
(-0.000131408 -0.000462462 0)
(-0.000133033 -0.000474534 0)
(-0.000134654 -0.000486754 0)
(-0.000136272 -0.00049912 0)
(-0.000137886 -0.000511634 0)
(-0.000139496 -0.000524294 0)
(-0.000141102 -0.0005371 0)
(-0.000142704 -0.000550053 0)
(-0.000144302 -0.00056315 0)
(-0.000145897 -0.000576393 0)
(-0.000147488 -0.000589781 0)
(-0.000149074 -0.000603313 0)
(-0.000150658 -0.000616989 0)
(-0.000152237 -0.000630809 0)
(-0.000153812 -0.000644772 0)
(-0.000155384 -0.000658878 0)
(-0.000156952 -0.000673127 0)
(-0.000158516 -0.000687519 0)
(-0.000160076 -0.000702052 0)
(-0.000161632 -0.000716727 0)
(-0.000163185 -0.000731544 0)
(-0.000164734 -0.000746501 0)
(-0.000166279 -0.000761599 0)
(-0.00016782 -0.000776837 0)
(-0.000169357 -0.000792215 0)
(-0.00017089 -0.000807733 0)
(-0.00017242 -0.00082339 0)
(-0.000173946 -0.000839186 0)
(-0.000175468 -0.00085512 0)
(-0.000176986 -0.000871193 0)
(-0.0001785 -0.000887403 0)
(-0.000180011 -0.000903751 0)
(-0.000181517 -0.000920236 0)
(-0.00018302 -0.000936858 0)
(-0.000184519 -0.000953616 0)
(-0.000186014 -0.000970511 0)
(-0.000187506 -0.000987541 0)
(-0.000188993 -0.00100471 0)
(-0.000190477 -0.00102201 0)
(-0.000191957 -0.00103944 0)
(-0.000193433 -0.00105701 0)
(-0.000194906 -0.00107472 0)
(-0.000196374 -0.00109255 0)
(-0.000197839 -0.00111052 0)
(-0.000199299 -0.00112863 0)
(-0.000200756 -0.00114686 0)
(-0.00020221 -0.00116523 0)
(-0.000203659 -0.00118373 0)
(-0.000205105 -0.00120237 0)
(-0.000206546 -0.00122113 0)
(-0.000207984 -0.00124002 0)
(-0.000209418 -0.00125905 0)
(-0.000210848 -0.0012782 0)
(-0.000212275 -0.00129749 0)
(-0.000213698 -0.0013169 0)
(-0.000215116 -0.00133645 0)
(-0.000216531 -0.00135612 0)
(-0.000217942 -0.00137592 0)
(-0.00021935 -0.00139585 0)
(-0.000220753 -0.0014159 0)
(-0.000222153 -0.00143609 0)
(-0.000223549 -0.0014564 0)
(-0.000224941 -0.00147684 0)
(-0.000226329 -0.0014974 0)
(-0.000227713 -0.00151809 0)
(-0.000229094 -0.00153891 0)
(-0.000230471 -0.00155985 0)
(-0.000231844 -0.00158092 0)
(-0.000233213 -0.00160211 0)
(-0.000234578 -0.00162342 0)
(-0.00023594 -0.00164486 0)
(-0.000237297 -0.00166642 0)
(-0.000238651 -0.00168811 0)
(-0.000240001 -0.00170992 0)
(-0.000241347 -0.00173185 0)
(-0.000242689 -0.0017539 0)
(-0.000244028 -0.00177608 0)
(-0.000245363 -0.00179838 0)
(-0.000246694 -0.00182079 0)
(-0.000248021 -0.00184333 0)
(-0.000249344 -0.00186599 0)
(-0.000250663 -0.00188877 0)
(-0.000251979 -0.00191167 0)
(-0.000253291 -0.00193469 0)
(-0.000254599 -0.00195783 0)
(-0.000255903 -0.00198108 0)
(-0.000257203 -0.00200446 0)
(-0.0002585 -0.00202795 0)
(-0.000259792 -0.00205156 0)
(-0.000261081 -0.00207529 0)
(-0.000262366 -0.00209914 0)
(-0.000263647 -0.0021231 0)
(-0.000264925 -0.00214718 0)
(-0.000266198 -0.00217137 0)
(-0.000267468 -0.00219568 0)
(-0.000268734 -0.0022201 0)
(-0.000269996 -0.00224464 0)
(-0.000271254 -0.0022693 0)
(-0.000272509 -0.00229407 0)
(-0.000273759 -0.00231895 0)
(-0.000275006 -0.00234395 0)
(-0.000276249 -0.00236905 0)
(-0.000277488 -0.00239428 0)
(-0.000278723 -0.00241961 0)
(-0.000279955 -0.00244506 0)
(-0.000281183 -0.00247062 0)
(-0.000282406 -0.00249629 0)
(-0.000283626 -0.00252207 0)
(-0.000284843 -0.00254796 0)
(-0.000286055 -0.00257396 0)
(-0.000287264 -0.00260007 0)
(-0.000288468 -0.00262629 0)
(-0.000289669 -0.00265262 0)
(-0.000290866 -0.00267906 0)
(-0.00029206 -0.00270561 0)
(-0.000293249 -0.00273227 0)
(-0.000294435 -0.00275904 0)
(-0.000295617 -0.00278591 0)
(-0.000296795 -0.00281289 0)
(-0.000297969 -0.00283997 0)
(-0.000299139 -0.00286717 0)
(-0.000300306 -0.00289447 0)
(-0.000301468 -0.00292187 0)
(-0.000302627 -0.00294938 0)
(-0.000303782 -0.002977 0)
(-0.000304933 -0.00300472 0)
(-0.000306081 -0.00303255 0)
(-0.000307224 -0.00306048 0)
(-0.000308364 -0.00308851 0)
(-0.0003095 -0.00311665 0)
(-0.000310632 -0.00314489 0)
(-0.00031176 -0.00317323 0)
(-0.000312885 -0.00320167 0)
(-0.000314006 -0.00323022 0)
(-0.000315122 -0.00325887 0)
(-0.000316235 -0.00328762 0)
(-0.000317345 -0.00331647 0)
(-0.00031845 -0.00334542 0)
(-0.000319551 -0.00337447 0)
(-0.000320649 -0.00340363 0)
(-0.000321743 -0.00343288 0)
(-0.000322833 -0.00346223 0)
(-0.000323919 -0.00349168 0)
(-0.000325002 -0.00352123 0)
(-0.000326081 -0.00355087 0)
(-0.000327155 -0.00358062 0)
(-0.000328226 -0.00361046 0)
(-0.000329293 -0.0036404 0)
(-0.000330357 -0.00367044 0)
(-0.000331416 -0.00370057 0)
(-0.000332472 -0.0037308 0)
(-0.000333524 -0.00376112 0)
(-0.000334572 -0.00379154 0)
(-0.000335616 -0.00382206 0)
(-0.000336657 -0.00385267 0)
(-0.000337693 -0.00388337 0)
(-0.000338726 -0.00391417 0)
(-0.000339755 -0.00394506 0)
(-0.00034078 -0.00397605 0)
(-0.000341801 -0.00400713 0)
(-0.000342819 -0.0040383 0)
(-0.000343832 -0.00406956 0)
(-0.000344842 -0.00410092 0)
(-0.000345848 -0.00413236 0)
(-0.000346851 -0.0041639 0)
(-0.000347849 -0.00419553 0)
(-0.000348843 -0.00422725 0)
(-0.000349834 -0.00425906 0)
(-0.000350821 -0.00429096 0)
(-0.000351804 -0.00432295 0)
(-0.000352783 -0.00435503 0)
(-0.000353759 -0.0043872 0)
(-0.000354731 -0.00441945 0)
(-0.000355698 -0.0044518 0)
(-0.000356662 -0.00448423 0)
(-0.000357622 -0.00451675 0)
(-0.000358579 -0.00454936 0)
(-0.000359531 -0.00458205 0)
(-0.00036048 -0.00461483 0)
(-0.000361425 -0.00464769 0)
(-0.000362366 -0.00468065 0)
(-0.000363303 -0.00471368 0)
(-0.000364237 -0.00474681 0)
(-0.000365166 -0.00478001 0)
(-0.000366092 -0.0048133 0)
(-0.000367014 -0.00484668 0)
(-0.000367932 -0.00488014 0)
(-0.000368846 -0.00491368 0)
(-0.000369757 -0.0049473 0)
(-0.000370663 -0.00498101 0)
(-0.000371566 -0.0050148 0)
(-0.000372465 -0.00504867 0)
(-0.000373361 -0.00508263 0)
(-0.000374252 -0.00511666 0)
(-0.000375139 -0.00515078 0)
(-0.000376023 -0.00518497 0)
(-0.000376903 -0.00521925 0)
(-0.000377779 -0.0052536 0)
(-0.000378651 -0.00528804 0)
(-0.00037952 -0.00532255 0)
(-0.000380384 -0.00535715 0)
(-0.000381245 -0.00539182 0)
(-0.000382102 -0.00542657 0)
(-0.000382955 -0.0054614 0)
(-0.000383805 -0.0054963 0)
(-0.00038465 -0.00553128 0)
(-0.000385492 -0.00556634 0)
(-0.00038633 -0.00560148 0)
(-0.000387164 -0.00563669 0)
(-0.000387994 -0.00567197 0)
(-0.00038882 -0.00570734 0)
(-0.000389643 -0.00574277 0)
(-0.000390462 -0.00577828 0)
(-0.000391276 -0.00581387 0)
(-0.000392087 -0.00584953 0)
(-0.000392895 -0.00588526 0)
(-0.000393698 -0.00592107 0)
(-0.000394498 -0.00595695 0)
(-0.000395294 -0.0059929 0)
(-0.000396086 -0.00602892 0)
(-0.000396874 -0.00606502 0)
(-0.000397658 -0.00610119 0)
(-0.000398438 -0.00613742 0)
(-0.000399215 -0.00617373 0)
(-0.000399988 -0.00621011 0)
(-0.000400757 -0.00624656 0)
(-0.000401522 -0.00628308 0)
(-0.000402284 -0.00631967 0)
(-0.000403041 -0.00635633 0)
(-0.000403795 -0.00639306 0)
(-0.000404545 -0.00642985 0)
(-0.000405291 -0.00646671 0)
(-0.000406033 -0.00650364 0)
(-0.000406771 -0.00654064 0)
(-0.000407506 -0.00657771 0)
(-0.000408237 -0.00661484 0)
(-0.000408964 -0.00665204 0)
(-0.000409687 -0.0066893 0)
(-0.000410406 -0.00672663 0)
(-0.000411122 -0.00676402 0)
(-0.000411833 -0.00680148 0)
(-0.000412541 -0.00683901 0)
(-0.000413245 -0.00687659 0)
(-0.000413945 -0.00691424 0)
(-0.000414642 -0.00695196 0)
(-0.000415334 -0.00698974 0)
(-0.000416023 -0.00702758 0)
(-0.000416708 -0.00706548 0)
(-0.000417389 -0.00710345 0)
(-0.000418066 -0.00714148 0)
(-0.000418739 -0.00717956 0)
(-0.000419409 -0.00721771 0)
(-0.000420075 -0.00725592 0)
(-0.000420737 -0.0072942 0)
(-0.000421395 -0.00733253 0)
(-0.000422049 -0.00737092 0)
(-0.0004227 -0.00740937 0)
(-0.000423346 -0.00744788 0)
(-0.000423989 -0.00748644 0)
(-0.000424628 -0.00752507 0)
(-0.000425263 -0.00756375 0)
(-0.000425895 -0.00760249 0)
(-0.000426522 -0.00764129 0)
(-0.000427146 -0.00768015 0)
(-0.000427766 -0.00771906 0)
(-0.000428382 -0.00775803 0)
(-0.000428994 -0.00779705 0)
(-0.000429603 -0.00783613 0)
(-0.000430207 -0.00787526 0)
(-0.000430808 -0.00791445 0)
(-0.000431405 -0.0079537 0)
(-0.000431998 -0.007993 0)
(-0.000432587 -0.00803235 0)
(-0.000433173 -0.00807175 0)
(-0.000433755 -0.00811121 0)
(-0.000434332 -0.00815072 0)
(-0.000434906 -0.00819028 0)
(-0.000435477 -0.0082299 0)
(-0.000436043 -0.00826957 0)
(-0.000436606 -0.00830928 0)
(-0.000437164 -0.00834905 0)
(-0.000437719 -0.00838887 0)
(-0.00043827 -0.00842874 0)
(-0.000438817 -0.00846866 0)
(-0.000439361 -0.00850863 0)
(-0.0004399 -0.00854865 0)
(-0.000440436 -0.00858872 0)
(-0.000440968 -0.00862883 0)
(-0.000441496 -0.008669 0)
(-0.000442021 -0.00870921 0)
(-0.000442541 -0.00874947 0)
(-0.000443058 -0.00878978 0)
(-0.000443571 -0.00883013 0)
(-0.00044408 -0.00887053 0)
(-0.000444585 -0.00891097 0)
(-0.000445086 -0.00895147 0)
(-0.000445584 -0.008992 0)
(-0.000446077 -0.00903259 0)
(-0.000446567 -0.00907321 0)
(-0.000447053 -0.00911388 0)
(-0.000447536 -0.0091546 0)
(-0.000448014 -0.00919536 0)
(-0.000448489 -0.00923616 0)
(-0.000448959 -0.00927701 0)
(-0.000449426 -0.00931789 0)
(-0.000449889 -0.00935882 0)
(-0.000450349 -0.0093998 0)
(-0.000450804 -0.00944081 0)
(-0.000451256 -0.00948186 0)
(-0.000451704 -0.00952296 0)
(-0.000452148 -0.0095641 0)
(-0.000452588 -0.00960527 0)
(-0.000453024 -0.00964649 0)
(-0.000453457 -0.00968775 0)
(-0.000453885 -0.00972904 0)
(-0.00045431 -0.00977037 0)
(-0.000454731 -0.00981175 0)
(-0.000455149 -0.00985316 0)
(-0.000455562 -0.00989461 0)
(-0.000455972 -0.00993609 0)
(-0.000456377 -0.00997761 0)
(-0.000456779 -0.0100192 0)
(-0.000457177 -0.0100608 0)
(-0.000457571 -0.0101024 0)
(-0.000457962 -0.0101441 0)
(-0.000458348 -0.0101858 0)
(-0.000458731 -0.0102275 0)
(-0.00045911 -0.0102693 0)
(-0.000459485 -0.0103111 0)
(-0.000459857 -0.0103529 0)
(-0.000460224 -0.0103948 0)
(-0.000460588 -0.0104367 0)
(-0.000460947 -0.0104786 0)
(-0.000461303 -0.0105206 0)
(-0.000461656 -0.0105626 0)
(-0.000462004 -0.0106047 0)
(-0.000462348 -0.0106467 0)
(-0.000462689 -0.0106888 0)
(-0.000463026 -0.010731 0)
(-0.000463359 -0.0107731 0)
(-0.000463688 -0.0108153 0)
(-0.000464013 -0.0108575 0)
(-0.000464335 -0.0108998 0)
(-0.000464653 -0.0109421 0)
(-0.000464966 -0.0109844 0)
(-0.000465276 -0.0110267 0)
(-0.000465583 -0.0110691 0)
(-0.000465885 -0.0111115 0)
(-0.000466184 -0.0111539 0)
(-0.000466478 -0.0111963 0)
(-0.000466769 -0.0112388 0)
(-0.000467056 -0.0112813 0)
(-0.000467339 -0.0113238 0)
(-0.000467619 -0.0113664 0)
(-0.000467894 -0.0114089 0)
(-0.000468166 -0.0114515 0)
(-0.000468434 -0.0114942 0)
(-0.000468698 -0.0115368 0)
(-0.000468958 -0.0115795 0)
(-0.000469215 -0.0116222 0)
(-0.000469468 -0.0116649 0)
(-0.000469716 -0.0117077 0)
(-0.000469961 -0.0117504 0)
(-0.000470202 -0.0117932 0)
(-0.00047044 -0.011836 0)
(-0.000470673 -0.0118788 0)
(-0.000470903 -0.0119217 0)
(-0.000471129 -0.0119646 0)
(-0.000471351 -0.0120075 0)
(-0.000471569 -0.0120504 0)
(-0.000471783 -0.0120933 0)
(-0.000471994 -0.0121363 0)
(-0.0004722 -0.0121792 0)
(-0.000472403 -0.0122222 0)
(-0.000472602 -0.0122652 0)
(-0.000472797 -0.0123082 0)
(-0.000472989 -0.0123513 0)
(-0.000473176 -0.0123943 0)
(-0.00047336 -0.0124374 0)
(-0.00047354 -0.0124805 0)
(-0.000473716 -0.0125236 0)
(-0.000473888 -0.0125668 0)
(-0.000474057 -0.0126099 0)
(-0.000474221 -0.0126531 0)
(-0.000474382 -0.0126962 0)
(-0.000474539 -0.0127394 0)
(-0.000474692 -0.0127826 0)
(-0.000474841 -0.0128258 0)
(-0.000474987 -0.012869 0)
(-0.000475128 -0.0129123 0)
(-0.000475266 -0.0129555 0)
(-0.0004754 -0.0129988 0)
(-0.00047553 -0.0130421 0)
(-0.000475657 -0.0130854 0)
(-0.000475779 -0.0131287 0)
(-0.000475898 -0.013172 0)
(-0.000476013 -0.0132153 0)
(-0.000476124 -0.0132586 0)
(-0.000476231 -0.013302 0)
(-0.000476334 -0.0133453 0)
(-0.000476434 -0.0133887 0)
(-0.000476529 -0.013432 0)
(-0.000476621 -0.0134754 0)
(-0.000476709 -0.0135188 0)
(-0.000476793 -0.0135622 0)
(-0.000476874 -0.0136056 0)
(-0.00047695 -0.013649 0)
(-0.000477023 -0.0136924 0)
(-0.000477092 -0.0137358 0)
(-0.000477157 -0.0137793 0)
(-0.000477219 -0.0138227 0)
(-0.000477276 -0.0138661 0)
(-0.00047733 -0.0139096 0)
(-0.000477381 -0.013953 0)
(-0.000477427 -0.0139965 0)
(-0.000477471 -0.0140399 0)
(-0.00047751 -0.0140834 0)
(-0.000477546 -0.0141269 0)
(-0.000477579 -0.0141703 0)
(-0.000477608 -0.0142138 0)
(-0.000477633 -0.0142573 0)
(-0.000477656 -0.0143008 0)
(-0.000477674 -0.0143442 0)
(-0.000477689 -0.0143877 0)
(-0.000477699 -0.0144312 0)
(-0.000477708 -0.0144748 0)
(-7.14573e-07 -3.7798e-07 0)
(-2.28093e-06 -1.14985e-06 0)
(-3.97665e-06 -1.96584e-06 0)
(-5.68567e-06 -2.81911e-06 0)
(-7.41265e-06 -3.74478e-06 0)
(-9.13205e-06 -4.77011e-06 0)
(-1.08494e-05 -5.91652e-06 0)
(-1.25602e-05 -7.19987e-06 0)
(-1.42671e-05 -8.6311e-06 0)
(-1.59697e-05 -1.02178e-05 0)
(-1.76688e-05 -1.19651e-05 0)