/*--------------------------------*- C++ -*----------------------------------*\
| =========                 |                                                 |
| \\      /  F ield         | foam-extend: Open Source CFD                    |
|  \\    /   O peration     | Version:     4.1                                |
|   \\  /    A nd           | Web:         http://www.foam-extend.org         |
|    \\/     M anipulation  |                                                 |
\*---------------------------------------------------------------------------*/
FoamFile
{
    version     2.0;
    format      ascii;
    class       volScalarField;
    location    "1";
    object      epsilonEq;
}
// * * * * * * * * * * * * * * * * * * * * * * * * * * * * * * * * * * * * * //

dimensions      [0 0 0 0 0 0 0];

internalField   nonuniform List<scalar> 
12500
(
0.000465703
0.000436572
0.000428329
0.000420491
0.000419943
0.000419833
0.000421256
0.0004225
0.000423782
0.00042473
0.000425426
0.000425822
0.000425975
0.000425907
0.000425662
0.000425269
0.000424761
0.00042416
0.000423489
0.000422762
0.000421995
0.000421195
0.000420373
0.000419533
0.000418681
0.00041782
0.000416952
0.000416081
0.000415205
0.000414328
0.000413449
0.00041257
0.00041169
0.000410809
0.000409928
0.000409048
0.000408167
0.000407286
0.000406405
0.000405525
0.000404644
0.000403763
0.000402883
0.000402002
0.000401121
0.000400241
0.00039936
0.000398479
0.000397598
0.000396717
0.000395837
0.000394956
0.000394076
0.000393196
0.000392316
0.000391435
0.000390555
0.000389675
0.000388794
0.000387914
0.000387034
0.000386153
0.000385272
0.000384392
0.000383511
0.000382631
0.00038175
0.00038087
0.000379989
0.000379109
0.000378228
0.000377348
0.000376467
0.000375586
0.000374706
0.000373825
0.000372945
0.000372064
0.000371183
0.000370303
0.000369422
0.000368542
0.000367661
0.000366781
0.000365901
0.000365021
0.00036414
0.00036326
0.00036238
0.0003615
0.00036062
0.000359739
0.000358859
0.000357979
0.000357099
0.000356219
0.000355339
0.000354458
0.000353578
0.000352698
0.000351818
0.000350938
0.000350058
0.000349178
0.000348299
0.000347419
0.000346539
0.000345659
0.000344779
0.000343899
0.000343019
0.000342139
0.000341259
0.000340379
0.000339499
0.000338618
0.000337738
0.000336858
0.000335978
0.000335098
0.000334218
0.000333338
0.000332458
0.000331578
0.000330698
0.000329818
0.000328938
0.000328058
0.000327178
0.000326298
0.000325418
0.000324538
0.000323657
0.000322777
0.000321897
0.000321017
0.000320137
0.000319256
0.000318376
0.000317496
0.000316615
0.000315735
0.000314855
0.000313974
0.000313094
0.000312214
0.000311334
0.000310454
0.000309574
0.000308694
0.000307814
0.000306934
0.000306054
0.000305174
0.000304294
0.000303413
0.000302532
0.000301652
0.000300771
0.000299891
0.00029901
0.00029813
0.00029725
0.000296369
0.000295489
0.000294609
0.000293729
0.000292849
0.000291969
0.000291089
0.000290209
0.000289329
0.000288449
0.000287569
0.000286688
0.000285808
0.000284928
0.000284047
0.000283167
0.000282287
0.000281406
0.000280526
0.000279645
0.000278765
0.000277884
0.000277004
0.000276124
0.000275243
0.000274363
0.000273482
0.000272602
0.000271721
0.000270841
0.000269961
0.00026908
0.0002682
0.00026732
0.00026644
0.000265559
0.000264679
0.000263799
0.000262918
0.000262038
0.000261158
0.000260279
0.000259398
0.000258519
0.000257639
0.000256759
0.000255879
0.000254999
0.000254119
0.000253239
0.000252359
0.00025148
0.0002506
0.00024972
0.000248841
0.000247961
0.000247081
0.000246201
0.000245321
0.000244441
0.000243561
0.000242681
0.000241801
0.000240921
0.000240041
0.000239161
0.000238281
0.000237401
0.000236521
0.00023564
0.00023476
0.00023388
0.000233
0.00023212
0.00023124
0.00023036
0.00022948
0.0002286
0.00022772
0.00022684
0.00022596
0.00022508
0.0002242
0.00022332
0.00022244
0.00022156
0.00022068
0.0002198
0.000218919
0.000218039
0.000217159
0.000216278
0.000215398
0.000214517
0.000213637
0.000212757
0.000211877
0.000210998
0.000210118
0.000209239
0.000208359
0.000207479
0.000206599
0.000205719
0.000204838
0.000203958
0.000203077
0.000202197
0.000201316
0.000200436
0.000199556
0.000198675
0.000197794
0.000196913
0.000196033
0.000195152
0.000194272
0.000193391
0.000192511
0.00019163
0.000190749
0.000189869
0.000188988
0.000188108
0.000187228
0.000186348
0.000185468
0.000184587
0.000183707
0.000182826
0.000181945
0.000181064
0.000180183
0.000179302
0.000178421
0.00017754
0.000176659
0.000175778
0.000174897
0.000174017
0.000173136
0.000172255
0.000171374
0.000170494
0.000169613
0.000168732
0.000167851
0.00016697
0.00016609
0.000165209
0.000164329
0.000163448
0.000162567
0.000161686
0.000160806
0.000159925
0.000159045
0.000158165
0.000157285
0.000156405
0.000155525
0.000154645
0.000153765
0.000152884
0.000152004
0.000151124
0.000150244
0.000149363
0.000148483
0.000147603
0.000146723
0.000145843
0.000144962
0.000144083
0.000143202
0.000142322
0.000141441
0.00014056
0.00013968
0.000138799
0.000137919
0.000137039
0.000136158
0.000135278
0.000134397
0.000133516
0.000132634
0.000131753
0.000130872
0.000129991
0.000129111
0.00012823
0.00012735
0.00012647
0.00012559
0.000124709
0.000123828
0.000122948
0.000122067
0.000121187
0.000120306
0.000119425
0.000118544
0.000117663
0.000116782
0.000115901
0.00011502
0.00011414
0.00011326
0.00011238
0.0001115
0.00011062
0.000109739
0.000108859
0.000107979
0.000107099
0.000106218
0.000105338
0.000104457
0.000103577
0.000102696
0.000101815
0.000100934
0.000100053
9.91718e-05
9.82902e-05
9.74083e-05
9.65261e-05
9.56437e-05
9.47618e-05
9.388e-05
9.29981e-05
9.21162e-05
9.12348e-05
9.03533e-05
8.94716e-05
8.85902e-05
8.77094e-05
8.68288e-05
8.5948e-05
8.50672e-05
8.41863e-05
8.33051e-05
8.24236e-05
8.15418e-05
8.06599e-05
7.97779e-05
7.8896e-05
7.80141e-05
7.71322e-05
7.62502e-05
7.53685e-05
7.4487e-05
7.36061e-05
7.27252e-05
7.18438e-05
7.09619e-05
7.00801e-05
6.91987e-05
6.83174e-05
6.74358e-05
6.65544e-05
6.56729e-05
6.4791e-05
6.39091e-05
6.30277e-05
6.21465e-05
6.12651e-05
6.03839e-05
5.95029e-05
5.86214e-05
5.77396e-05
5.68581e-05
5.59773e-05
5.50963e-05
5.42148e-05
5.33336e-05
5.24526e-05
5.15715e-05
5.06903e-05
4.98092e-05
4.89279e-05
4.80466e-05
4.71651e-05
4.62838e-05
4.54024e-05
4.45212e-05
4.36403e-05
4.27596e-05
4.18786e-05
4.09972e-05
4.01155e-05
3.92341e-05
3.83533e-05
3.74724e-05
3.65906e-05
3.57083e-05
3.48263e-05
3.39449e-05
3.30636e-05
3.21824e-05
3.13012e-05
3.04197e-05
2.9538e-05
2.86568e-05
2.77758e-05
2.68943e-05
2.60128e-05
2.51319e-05
2.42512e-05
2.33703e-05
2.24895e-05
2.16094e-05
2.07297e-05
1.98505e-05
1.89725e-05
1.80961e-05
1.72216e-05
1.63498e-05
1.5482e-05
1.46185e-05
1.37608e-05
1.29114e-05
1.20732e-05
1.12489e-05
1.04415e-05
9.65507e-06
8.89535e-06
8.16587e-06
7.47553e-06
6.81992e-06
6.21412e-06
5.61781e-06
5.072e-06
4.40512e-06
4.03191e-06
4.80327e-06
0.00036412
0.000386974
0.000394361
0.000394294
0.000394537
0.000393907
0.000393836
0.000393671
0.000393672
0.000393605
0.000393511
0.000393321
0.000393046
0.000392679
0.000392231
0.00039171
0.000391127
0.000390494
0.000389819
0.000389111
0.000388378
0.000387625
0.000386857
0.000386077
0.000385288
0.000384493
0.000383694
0.000382891
0.000382086
0.000381279
0.00038047
0.000379662
0.000378852
0.000378042
0.000377232
0.000376422
0.000375611
0.000374801
0.000373991
0.00037318
0.00037237
0.000371559
0.000370749
0.000369939
0.000369128
0.000368318
0.000367508
0.000366697
0.000365887
0.000365076
0.000364266
0.000363456
0.000362646
0.000361836
0.000361026
0.000360216
0.000359406
0.000358596
0.000357785
0.000356975
0.000356165
0.000355355
0.000354545
0.000353734
0.000352924
0.000352114
0.000351303
0.000350493
0.000349683
0.000348873
0.000348062
0.000347252
0.000346442
0.000345631
0.000344821
0.000344011
0.000343201
0.00034239
0.00034158
0.00034077
0.00033996
0.00033915
0.000338339
0.000337529
0.000336719
0.000335909
0.000335099
0.000334289
0.000333479
0.000332669
0.000331859
0.000331049
0.000330239
0.000329429
0.000328619
0.000327809
0.000327
0.00032619
0.00032538
0.00032457
0.00032376
0.00032295
0.000322141
0.000321331
0.000320521
0.000319711
0.000318902
0.000318092
0.000317282
0.000316472
0.000315663
0.000314853
0.000314043
0.000313233
0.000312424
0.000311614
0.000310804
0.000309994
0.000309184
0.000308374
0.000307565
0.000306755
0.000305945
0.000305135
0.000304325
0.000303516
0.000302706
0.000301896
0.000301086
0.000300276
0.000299466
0.000298656
0.000297847
0.000297036
0.000296226
0.000295417
0.000294607
0.000293797
0.000292987
0.000292177
0.000291367
0.000290557
0.000289746
0.000288936
0.000288127
0.000287317
0.000286507
0.000285697
0.000284887
0.000284077
0.000283267
0.000282458
0.000281647
0.000280838
0.000280028
0.000279218
0.000278408
0.000277597
0.000276787
0.000275977
0.000275167
0.000274357
0.000273547
0.000272737
0.000271927
0.000271117
0.000270307
0.000269497
0.000268687
0.000267878
0.000267068
0.000266258
0.000265448
0.000264638
0.000263828
0.000263018
0.000262208
0.000261398
0.000260588
0.000259778
0.000258968
0.000258158
0.000257347
0.000256537
0.000255727
0.000254917
0.000254107
0.000253296
0.000252486
0.000251676
0.000250866
0.000250056
0.000249246
0.000248436
0.000247626
0.000246816
0.000246006
0.000245196
0.000244386
0.000243576
0.000242766
0.000241956
0.000241146
0.000240336
0.000239527
0.000238717
0.000237907
0.000237098
0.000236288
0.000235478
0.000234668
0.000233859
0.000233049
0.000232239
0.00023143
0.000230621
0.000229811
0.000229001
0.000228191
0.000227382
0.000226572
0.000225762
0.000224953
0.000224143
0.000223334
0.000222524
0.000221714
0.000220904
0.000220094
0.000219285
0.000218475
0.000217665
0.000216855
0.000216045
0.000215235
0.000214426
0.000213616
0.000212806
0.000211996
0.000211187
0.000210377
0.000209567
0.000208757
0.000207947
0.000207138
0.000206328
0.000205518
0.000204708
0.000203899
0.000203089
0.000202279
0.000201469
0.000200659
0.000199849
0.000199039
0.000198229
0.000197419
0.000196609
0.0001958
0.00019499
0.00019418
0.000193371
0.000192561
0.000191752
0.000190942
0.000190132
0.000189322
0.000188512
0.000187702
0.000186892
0.000186081
0.000185271
0.000184461
0.000183651
0.000182841
0.000182031
0.00018122
0.00018041
0.0001796
0.00017879
0.00017798
0.000177169
0.000176359
0.000175549
0.000174739
0.000173928
0.000173118
0.000172308
0.000171498
0.000170688
0.000169878
0.000169068
0.000168257
0.000167447
0.000166637
0.000165826
0.000165015
0.000164205
0.000163395
0.000162584
0.000161774
0.000160963
0.000160152
0.000159342
0.000158532
0.000157721
0.000156911
0.000156101
0.00015529
0.00015448
0.00015367
0.000152859
0.000152049
0.000151238
0.000150428
0.000149618
0.000148808
0.000147998
0.000147188
0.000146378
0.000145568
0.000144758
0.000143948
0.000143138
0.000142328
0.000141519
0.000140709
0.000139899
0.000139089
0.000138279
0.000137469
0.000136659
0.000135849
0.00013504
0.00013423
0.00013342
0.00013261
0.0001318
0.00013099
0.00013018
0.000129369
0.000128559
0.00012775
0.00012694
0.000126129
0.000125319
0.000124509
0.000123698
0.000122888
0.000122077
0.000121267
0.000120457
0.000119646
0.000118836
0.000118026
0.000117216
0.000116405
0.000115596
0.000114786
0.000113976
0.000113165
0.000112355
0.000111545
0.000110735
0.000109924
0.000109114
0.000108304
0.000107494
0.000106684
0.000105873
0.000105063
0.000104253
0.000103443
0.000102634
0.000101824
0.000101014
0.000100204
9.93942e-05
9.85843e-05
9.77742e-05
9.69639e-05
9.61537e-05
9.53439e-05
9.4534e-05
9.37235e-05
9.29129e-05
9.21022e-05
9.12912e-05
9.04801e-05
8.96693e-05
8.88585e-05
8.80474e-05
8.72363e-05
8.64256e-05
8.56145e-05
8.48029e-05
8.39918e-05
8.31814e-05
8.23709e-05
8.15602e-05
8.07496e-05
7.99394e-05
7.91289e-05
7.83183e-05
7.75076e-05
7.66969e-05
7.58861e-05
7.50755e-05
7.42649e-05
7.34541e-05
7.2643e-05
7.18317e-05
7.10206e-05
7.02097e-05
6.93992e-05
6.85887e-05
6.77783e-05
6.69679e-05
6.61574e-05
6.53464e-05
6.45353e-05
6.37249e-05
6.29147e-05
6.21039e-05
6.1293e-05
6.04826e-05
5.96722e-05
5.88617e-05
5.80513e-05
5.72412e-05
5.64305e-05
5.56197e-05
5.48097e-05
5.40002e-05
5.31901e-05
5.23795e-05
5.15695e-05
5.07598e-05
4.99493e-05
4.91389e-05
4.83293e-05
4.75201e-05
4.67105e-05
4.59007e-05
4.50908e-05
4.42806e-05
4.34705e-05
4.26608e-05
4.18517e-05
4.10426e-05
4.02334e-05
3.9424e-05
3.86145e-05
3.78049e-05
3.69956e-05
3.61864e-05
3.53775e-05
3.45688e-05
3.37597e-05
3.29503e-05
3.21414e-05
3.13331e-05
3.05245e-05
2.97153e-05
2.89066e-05
2.80987e-05
2.72913e-05
2.64839e-05
2.56769e-05
2.48699e-05
2.40624e-05
2.32555e-05
2.24497e-05
2.16446e-05
2.08395e-05
2.0035e-05
1.92317e-05
1.84291e-05
1.76275e-05
1.68274e-05
1.60294e-05
1.52339e-05
1.44411e-05
1.36513e-05
1.28655e-05
1.20851e-05
1.13103e-05
1.05412e-05
9.7793e-06
9.02663e-06
8.28363e-06
7.54743e-06
6.82181e-06
6.10144e-06
5.40066e-06
4.7125e-06
4.15389e-06
3.87841e-06
4.69757e-06
7.13181e-06
0.000286682
0.000325685
0.000348498
0.000357177
0.000361238
0.00036204
0.00036204
0.00036142
0.000360752
0.000360012
0.000359311
0.000358616
0.00035794
0.000357267
0.000356594
0.000355916
0.000355231
0.000354539
0.00035384
0.000353133
0.00035242
0.000351703
0.000350982
0.000350257
0.000349529
0.0003488
0.000348069
0.000347337
0.000346605
0.000345871
0.000345137
0.000344403
0.000343669
0.000342934
0.000342199
0.000341464
0.000340729
0.000339994
0.000339259
0.000338525
0.00033779
0.000337055
0.00033632
0.000335585
0.000334849
0.000334114
0.00033338
0.000332645
0.00033191
0.000331175
0.00033044
0.000329705
0.00032897
0.000328235
0.000327501
0.000326766
0.000326031
0.000325296
0.000324561
0.000323826
0.000323091
0.000322356
0.000321622
0.000320887
0.000320152
0.000319417
0.000318682
0.000317947
0.000317212
0.000316477
0.000315742
0.000315007
0.000314272
0.000313537
0.000312802
0.000312067
0.000311332
0.000310597
0.000309862
0.000309128
0.000308393
0.000307658
0.000306923
0.000306188
0.000305453
0.000304719
0.000303984
0.000303249
0.000302514
0.00030178
0.000301045
0.00030031
0.000299576
0.000298841
0.000298106
0.000297372
0.000296637
0.000295903
0.000295168
0.000294434
0.000293699
0.000292965
0.00029223
0.000291495
0.000290761
0.000290026
0.000289292
0.000288558
0.000287823
0.000287088
0.000286354
0.00028562
0.000284885
0.00028415
0.000283416
0.000282682
0.000281947
0.000281213
0.000280478
0.000279743
0.000279009
0.000278274
0.00027754
0.000276805
0.000276071
0.000275336
0.000274602
0.000273867
0.000273132
0.000272398
0.000271663
0.000270929
0.000270194
0.00026946
0.000268725
0.00026799
0.000267256
0.000266521
0.000265786
0.000265052
0.000264317
0.000263582
0.000262848
0.000262113
0.000261378
0.000260644
0.000259909
0.000259175
0.00025844
0.000257705
0.000256971
0.000256236
0.000255501
0.000254767
0.000254032
0.000253297
0.000252563
0.000251828
0.000251093
0.000250358
0.000249624
0.000248889
0.000248154
0.000247419
0.000246685
0.000245951
0.000245216
0.000244481
0.000243747
0.000243012
0.000242277
0.000241543
0.000240808
0.000240073
0.000239339
0.000238604
0.00023787
0.000237135
0.0002364
0.000235665
0.000234931
0.000234196
0.000233461
0.000232726
0.000231992
0.000231257
0.000230522
0.000229787
0.000229052
0.000228317
0.000227583
0.000226848
0.000226113
0.000225379
0.000224644
0.000223909
0.000223174
0.00022244
0.000221705
0.000220971
0.000220236
0.000219502
0.000218767
0.000218032
0.000217298
0.000216564
0.000215829
0.000215095
0.000214361
0.000213626
0.000212892
0.000212157
0.000211423
0.000210688
0.000209954
0.00020922
0.000208486
0.000207751
0.000207017
0.000206282
0.000205548
0.000204814
0.00020408
0.000203345
0.000202611
0.000201877
0.000201142
0.000200407
0.000199673
0.000198939
0.000198204
0.00019747
0.000196735
0.000196001
0.000195266
0.000194532
0.000193797
0.000193063
0.000192328
0.000191594
0.00019086
0.000190125
0.000189391
0.000188656
0.000187922
0.000187187
0.000186453
0.000185718
0.000184984
0.00018425
0.000183515
0.000182781
0.000182046
0.000181311
0.000180577
0.000179843
0.000179108
0.000178374
0.000177639
0.000176905
0.000176171
0.000175436
0.000174702
0.000173967
0.000173233
0.000172498
0.000171764
0.000171029
0.000170295
0.00016956
0.000168825
0.000168091
0.000167356
0.000166621
0.000165886
0.000165151
0.000164417
0.000163682
0.000162947
0.000162212
0.000161478
0.000160743
0.000160008
0.000159273
0.000158539
0.000157804
0.000157069
0.000156335
0.0001556
0.000154865
0.00015413
0.000153395
0.00015266
0.000151925
0.000151191
0.000150456
0.000149721
0.000148986
0.000148251
0.000147516
0.000146781
0.000146046
0.000145311
0.000144576
0.000143841
0.000143106
0.000142371
0.000141636
0.000140902
0.000140167
0.000139432
0.000138697
0.000137962
0.000137227
0.000136492
0.000135758
0.000135023
0.000134289
0.000133554
0.00013282
0.000132085
0.00013135
0.000130616
0.000129882
0.000129147
0.000128413
0.000127679
0.000126944
0.00012621
0.000125475
0.000124741
0.000124006
0.000123272
0.000122538
0.000121804
0.000121069
0.000120335
0.0001196
0.000118865
0.000118131
0.000117396
0.000116662
0.000115928
0.000115193
0.000114459
0.000113724
0.000112989
0.000112254
0.000111519
0.000110785
0.00011005
0.000109316
0.000108581
0.000107846
0.000107112
0.000106377
0.000105642
0.000104908
0.000104174
0.000103439
0.000102705
0.00010197
0.000101236
0.000100501
9.97661e-05
9.90317e-05
9.82974e-05
9.75631e-05
9.68288e-05
9.60947e-05
9.53603e-05
9.46256e-05
9.38911e-05
9.3157e-05
9.24229e-05
9.16887e-05
9.09544e-05
9.022e-05
8.94858e-05
8.87516e-05
8.8017e-05
8.72823e-05
8.65481e-05
8.58141e-05
8.50795e-05
8.43446e-05
8.36097e-05
8.28748e-05
8.21396e-05
8.14048e-05
8.06705e-05
7.99358e-05
7.92007e-05
7.84659e-05
7.77313e-05
7.6996e-05
7.62606e-05
7.5526e-05
7.4792e-05
7.40573e-05
7.33225e-05
7.25879e-05
7.18535e-05
7.11188e-05
7.0384e-05
6.96493e-05
6.89147e-05
6.81802e-05
6.7446e-05
6.67117e-05
6.59768e-05
6.52419e-05
6.45072e-05
6.3773e-05
6.30391e-05
6.2305e-05
6.15704e-05
6.08358e-05
6.01018e-05
5.93679e-05
5.86335e-05
5.78992e-05
5.71653e-05
5.64312e-05
5.56967e-05
5.49626e-05
5.42293e-05
5.34959e-05
5.27622e-05
5.20287e-05
5.1295e-05
5.05608e-05
4.9827e-05
4.90945e-05
4.83621e-05
4.76287e-05
4.68953e-05
4.61626e-05
4.54298e-05
4.46966e-05
4.39638e-05
4.32317e-05
4.24997e-05
4.17675e-05
4.10352e-05
4.03027e-05
3.95703e-05
3.88386e-05
3.81076e-05
3.73767e-05
3.66453e-05
3.59137e-05
3.51822e-05
3.44516e-05
3.37218e-05
3.29916e-05
3.22609e-05
3.15305e-05
3.08013e-05
3.00723e-05
2.93432e-05
2.86146e-05
2.78863e-05
2.71575e-05
2.64292e-05
2.57023e-05
2.49765e-05
2.42506e-05
2.35255e-05
2.28014e-05
2.20773e-05
2.13534e-05
2.06309e-05
1.99104e-05
1.91907e-05
1.84714e-05
1.7754e-05
1.70382e-05
1.63237e-05
1.56107e-05
1.48996e-05
1.41907e-05
1.34839e-05
1.27793e-05
1.20771e-05
1.13771e-05
1.06783e-05
9.98118e-06
9.28556e-06
8.59184e-06
7.90128e-06
7.21365e-06
6.53964e-06
5.89136e-06
5.31686e-06
4.87727e-06
4.75679e-06
5.1228e-06
6.33497e-06
8.21394e-06
0.000235705
0.000275915
0.000303465
0.00031687
0.000324453
0.00032748
0.000328621
0.000328467
0.000327835
0.000326919
0.000325946
0.000324961
0.000324017
0.000323115
0.00032226
0.000321444
0.000320663
0.000319909
0.000319178
0.000318464
0.000317763
0.000317072
0.000316389
0.000315712
0.000315039
0.000314369
0.000313701
0.000313036
0.000312371
0.000311707
0.000311044
0.000310381
0.000309718
0.000309056
0.000308394
0.000307731
0.000307069
0.000306407
0.000305745
0.000305082
0.00030442
0.000303758
0.000303096
0.000302434
0.000301771
0.000301109
0.000300447
0.000299785
0.000299122
0.00029846
0.000297798
0.000297136
0.000296474
0.000295812
0.00029515
0.000294487
0.000293825
0.000293163
0.000292501
0.000291839
0.000291177
0.000290514
0.000289852
0.00028919
0.000288528
0.000287866
0.000287203
0.000286541
0.000285879
0.000285217
0.000284554
0.000283892
0.00028323
0.000282568
0.000281905
0.000281243
0.000280581
0.000279919
0.000279257
0.000278595
0.000277933
0.00027727
0.000276608
0.000275947
0.000275284
0.000274622
0.00027396
0.000273298
0.000272636
0.000271974
0.000271312
0.00027065
0.000269988
0.000269326
0.000268664
0.000268002
0.00026734
0.000266679
0.000266017
0.000265355
0.000264693
0.000264031
0.00026337
0.000262708
0.000262046
0.000261384
0.000260722
0.00026006
0.000259398
0.000258737
0.000258075
0.000257413
0.000256751
0.000256089
0.000255428
0.000254766
0.000254104
0.000253442
0.00025278
0.000252119
0.000251457
0.000250795
0.000250133
0.000249471
0.000248809
0.000248147
0.000247486
0.000246824
0.000246162
0.0002455
0.000244838
0.000244176
0.000243514
0.000242853
0.000242191
0.000241529
0.000240867
0.000240205
0.000239543
0.000238881
0.000238219
0.000237557
0.000236895
0.000236233
0.000235572
0.00023491
0.000234248
0.000233586
0.000232924
0.000232262
0.0002316
0.000230938
0.000230276
0.000229614
0.000228952
0.00022829
0.000227628
0.000226966
0.000226304
0.000225642
0.00022498
0.000224319
0.000223657
0.000222995
0.000222333
0.000221671
0.000221009
0.000220347
0.000219685
0.000219023
0.000218361
0.000217699
0.000217038
0.000216376
0.000215714
0.000215052
0.00021439
0.000213728
0.000213066
0.000212404
0.000211742
0.00021108
0.000210418
0.000209756
0.000209094
0.000208432
0.00020777
0.000207108
0.000206446
0.000205784
0.000205122
0.00020446
0.000203798
0.000203136
0.000202474
0.000201812
0.00020115
0.000200489
0.000199827
0.000199165
0.000198503
0.000197842
0.00019718
0.000196518
0.000195856
0.000195195
0.000194533
0.000193871
0.00019321
0.000192548
0.000191886
0.000191224
0.000190563
0.000189901
0.00018924
0.000188578
0.000187916
0.000187255
0.000186593
0.000185931
0.00018527
0.000184608
0.000183947
0.000183285
0.000182623
0.000181962
0.0001813
0.000180639
0.000179977
0.000179315
0.000178654
0.000177992
0.00017733
0.000176669
0.000176007
0.000175345
0.000174684
0.000174022
0.00017336
0.000172698
0.000172037
0.000171375
0.000170713
0.000170052
0.00016939
0.000168729
0.000168067
0.000167405
0.000166744
0.000166082
0.00016542
0.000164759
0.000164097
0.000163435
0.000162774
0.000162112
0.000161451
0.000160789
0.000160127
0.000159466
0.000158804
0.000158142
0.000157481
0.000156819
0.000156157
0.000155496
0.000154834
0.000154172
0.00015351
0.000152849
0.000152187
0.000151525
0.000150863
0.000150201
0.000149539
0.000148877
0.000148216
0.000147554
0.000146892
0.00014623
0.000145568
0.000144906
0.000144244
0.000143582
0.000142921
0.000142259
0.000141597
0.000140936
0.000140274
0.000139612
0.00013895
0.000138288
0.000137625
0.000136963
0.000136302
0.00013564
0.000134978
0.000134316
0.000133654
0.000132992
0.00013233
0.000131668
0.000131006
0.000130344
0.000129682
0.00012902
0.000128358
0.000127696
0.000127035
0.000126373
0.000125711
0.000125049
0.000124387
0.000123725
0.000123064
0.000122402
0.000121741
0.000121079
0.000120417
0.000119756
0.000119094
0.000118433
0.000117771
0.000117109
0.000116448
0.000115786
0.000115125
0.000114464
0.000113802
0.000113141
0.00011248
0.000111818
0.000111157
0.000110496
0.000109834
0.000109173
0.000108511
0.00010785
0.000107188
0.000106527
0.000105866
0.000105205
0.000104543
0.000103881
0.00010322
0.000102558
0.000101897
0.000101235
0.000100574
9.99123e-05
9.92509e-05
9.85898e-05
9.79284e-05
9.72666e-05
9.66053e-05
9.59442e-05
9.52828e-05
9.4621e-05
9.39596e-05
9.32984e-05
9.2637e-05
9.19757e-05
9.13146e-05
9.06534e-05
8.9992e-05
8.93309e-05
8.86699e-05
8.80088e-05
8.73477e-05
8.66867e-05
8.60258e-05
8.53648e-05
8.47037e-05
8.40426e-05
8.33815e-05
8.27205e-05
8.20596e-05
8.13985e-05
8.07374e-05
8.00766e-05
7.94159e-05
7.87549e-05
7.80939e-05
7.7433e-05
7.67719e-05
7.61104e-05
7.5449e-05
7.4788e-05
7.41269e-05
7.34659e-05
7.28052e-05
7.21444e-05
7.1483e-05
7.08214e-05
7.01604e-05
6.94995e-05
6.88383e-05
6.81773e-05
6.75168e-05
6.68561e-05
6.61951e-05
6.55341e-05
6.48733e-05
6.42124e-05
6.35515e-05
6.28909e-05
6.22306e-05
6.15702e-05
6.09097e-05
6.02491e-05
5.95884e-05
5.89278e-05
5.82677e-05
5.76079e-05
5.69482e-05
5.62883e-05
5.5628e-05
5.49674e-05
5.43074e-05
5.36481e-05
5.29886e-05
5.23286e-05
5.1669e-05
5.10096e-05
5.035e-05
4.96906e-05
4.9032e-05
4.83734e-05
4.77143e-05
4.70553e-05
4.6397e-05
4.57384e-05
4.50797e-05
4.44217e-05
4.37643e-05
4.31065e-05
4.24482e-05
4.17906e-05
4.11336e-05
4.04766e-05
3.98197e-05
3.91632e-05
3.85068e-05
3.78503e-05
3.71937e-05
3.65377e-05
3.58824e-05
3.52277e-05
3.45734e-05
3.39189e-05
3.32641e-05
3.26095e-05
3.19556e-05
3.13025e-05
3.06503e-05
2.99983e-05
2.9346e-05
2.86941e-05
2.80438e-05
2.73941e-05
2.67441e-05
2.60945e-05
2.54459e-05
2.47981e-05
2.41511e-05
2.35056e-05
2.28617e-05
2.22179e-05
2.15746e-05
2.09332e-05
2.02935e-05
1.96548e-05
1.90175e-05
1.83828e-05
1.77499e-05
1.71179e-05
1.64882e-05
1.58613e-05
1.52367e-05
1.46139e-05
1.39935e-05
1.33754e-05
1.27595e-05
1.21457e-05
1.15335e-05
1.09227e-05
1.03123e-05
9.7034e-06
9.09689e-06
8.4943e-06
7.9012e-06
7.32532e-06
6.78824e-06
6.31794e-06
5.97799e-06
5.83018e-06
5.99427e-06
6.49773e-06
7.50202e-06
8.73442e-06
0.000197877
0.000232552
0.000260058
0.000275868
0.000285755
0.000290641
0.000292979
0.000293531
0.000293224
0.000292401
0.000291378
0.000290277
0.000289191
0.000288151
0.000287176
0.000286266
0.000285417
0.00028462
0.000283868
0.000283154
0.000282469
0.000281807
0.000281164
0.000280535
0.000279917
0.000279307
0.000278703
0.000278104
0.000277508
0.000276915
0.000276323
0.000275732
0.000275143
0.000274554
0.000273965
0.000273376
0.000272788
0.0002722
0.000271612
0.000271024
0.000270436
0.000269848
0.000269259
0.000268671
0.000268083
0.000267495
0.000266907
0.000266319
0.000265731
0.000265143
0.000264555
0.000263967
0.000263379
0.000262791
0.000262203
0.000261615
0.000261027
0.000260438
0.00025985
0.000259262
0.000258674
0.000258086
0.000257498
0.00025691
0.000256322
0.000255734
0.000255145
0.000254557
0.000253969
0.000253381
0.000252793
0.000252205
0.000251617
0.000251029
0.000250441
0.000249852
0.000249265
0.000248676
0.000248088
0.000247501
0.000246913
0.000246325
0.000245736
0.000245149
0.000244561
0.000243973
0.000243385
0.000242797
0.000242209
0.000241621
0.000241033
0.000240445
0.000239857
0.000239269
0.000238682
0.000238094
0.000237506
0.000236918
0.00023633
0.000235743
0.000235155
0.000234567
0.000233979
0.000233391
0.000232804
0.000232216
0.000231628
0.00023104
0.000230452
0.000229865
0.000229277
0.000228689
0.000228102
0.000227514
0.000226926
0.000226338
0.000225751
0.000225163
0.000224575
0.000223988
0.0002234
0.000222812
0.000222224
0.000221637
0.000221049
0.000220461
0.000219873
0.000219286
0.000218698
0.00021811
0.000217522
0.000216934
0.000216346
0.000215759
0.000215171
0.000214583
0.000213995
0.000213408
0.00021282
0.000212232
0.000211644
0.000211056
0.000210469
0.000209881
0.000209293
0.000208705
0.000208117
0.00020753
0.000206942
0.000206354
0.000205766
0.000205178
0.00020459
0.000204003
0.000203415
0.000202827
0.000202239
0.000201651
0.000201064
0.000200476
0.000199888
0.0001993
0.000198713
0.000198125
0.000197537
0.000196949
0.000196362
0.000195774
0.000195186
0.000194598
0.00019401
0.000193422
0.000192835
0.000192247
0.000191659
0.000191071
0.000190483
0.000189896
0.000189308
0.00018872
0.000188133
0.000187545
0.000186957
0.000186369
0.000185781
0.000185193
0.000184605
0.000184018
0.00018343
0.000182842
0.000182254
0.000181666
0.000181078
0.000180491
0.000179903
0.000179315
0.000178727
0.00017814
0.000177552
0.000176965
0.000176377
0.000175789
0.000175202
0.000174614
0.000174027
0.000173439
0.000172852
0.000172264
0.000171677
0.000171089
0.000170501
0.000169914
0.000169326
0.000168739
0.000168152
0.000167564
0.000166977
0.000166389
0.000165801
0.000165214
0.000164627
0.000164039
0.000163452
0.000162865
0.000162277
0.000161689
0.000161102
0.000160515
0.000159927
0.00015934
0.000158752
0.000158165
0.000157577
0.00015699
0.000156402
0.000155815
0.000155227
0.00015464
0.000154053
0.000153465
0.000152878
0.00015229
0.000151703
0.000151115
0.000150527
0.00014994
0.000149353
0.000148765
0.000148178
0.000147591
0.000147003
0.000146416
0.000145828
0.000145241
0.000144654
0.000144066
0.000143479
0.000142892
0.000142304
0.000141717
0.000141129
0.000140542
0.000139954
0.000139367
0.000138779
0.000138192
0.000137605
0.000137017
0.00013643
0.000135842
0.000135255
0.000134667
0.00013408
0.000133492
0.000132904
0.000132317
0.000131729
0.000131142
0.000130555
0.000129967
0.00012938
0.000128792
0.000128204
0.000127617
0.000127029
0.000126442
0.000125854
0.000125267
0.00012468
0.000124092
0.000123504
0.000122917
0.000122329
0.000121741
0.000121154
0.000120567
0.000119979
0.000119392
0.000118804
0.000118216
0.000117629
0.000117041
0.000116454
0.000115866
0.000115279
0.000114691
0.000114104
0.000113517
0.000112929
0.000112342
0.000111754
0.000111167
0.00011058
0.000109992
0.000109405
0.000108818
0.000108231
0.000107644
0.000107056
0.000106469
0.000105882
0.000105295
0.000104708
0.000104121
0.000103534
0.000102947
0.00010236
0.000101773
0.000101186
0.000100599
0.000100012
9.9426e-05
9.88394e-05
9.82526e-05
9.76656e-05
9.70785e-05
9.64913e-05
9.59044e-05
9.53176e-05
9.47308e-05
9.41444e-05
9.35579e-05
9.29711e-05
9.2384e-05
9.1797e-05
9.12101e-05
9.06231e-05
9.00363e-05
8.94499e-05
8.88633e-05
8.82766e-05
8.769e-05
8.71035e-05
8.65166e-05
8.59296e-05
8.53432e-05
8.47567e-05
8.41699e-05
8.35831e-05
8.29966e-05
8.24101e-05
8.18235e-05
8.1237e-05
8.06507e-05
8.00644e-05
7.94782e-05
7.88922e-05
7.83061e-05
7.77198e-05
7.71335e-05
7.65475e-05
7.59615e-05
7.53754e-05
7.47893e-05
7.42031e-05
7.36169e-05
7.30309e-05
7.24449e-05
7.18587e-05
7.12727e-05
7.06871e-05
7.01016e-05
6.95156e-05
6.89297e-05
6.83438e-05
6.77575e-05
6.71713e-05
6.65856e-05
6.60002e-05
6.54146e-05
6.48291e-05
6.42439e-05
6.36581e-05
6.30719e-05
6.2486e-05
6.19007e-05
6.13153e-05
6.07298e-05
6.01446e-05
5.95597e-05
5.89744e-05
5.83889e-05
5.78034e-05
5.72179e-05
5.66327e-05
5.60481e-05
5.54639e-05
5.48794e-05
5.42946e-05
5.37097e-05
5.3125e-05
5.25407e-05
5.19569e-05
5.13732e-05
5.07892e-05
5.02053e-05
4.96215e-05
4.90376e-05
4.84538e-05
4.78706e-05
4.72877e-05
4.67042e-05
4.61207e-05
4.55378e-05
4.49553e-05
4.4373e-05
4.37911e-05
4.32093e-05
4.26271e-05
4.20448e-05
4.14633e-05
4.08824e-05
4.03013e-05
3.97204e-05
3.91402e-05
3.85603e-05
3.79799e-05
3.73997e-05
3.68203e-05
3.62413e-05
3.56628e-05
3.50848e-05
3.45068e-05
3.39285e-05
3.33505e-05
3.27736e-05
3.21976e-05
3.16222e-05
3.10469e-05
3.04718e-05
2.98969e-05
2.93228e-05