/*--------------------------------*- C++ -*----------------------------------*\
| =========                 |                                                 |
| \\      /  F ield         | foam-extend: Open Source CFD                    |
|  \\    /   O peration     | Version:     4.1                                |
|   \\  /    A nd           | Web:         http://www.foam-extend.org         |
|    \\/     M anipulation  |                                                 |
\*---------------------------------------------------------------------------*/
FoamFile
{
    version     2.0;
    format      ascii;
    class       volSymmTensorField;
    location    "1";
    object      epsilon;
}
// * * * * * * * * * * * * * * * * * * * * * * * * * * * * * * * * * * * * * //

dimensions      [0 0 0 0 0 0 0];

internalField   nonuniform List<symmTensor> 
12500
(
(-0.000561762 -9.53571e-05 -1.9176e-18 0.000192423 -6.67604e-19 -1.85296e-32)
(-0.000519573 -3.3256e-05 5.08529e-18 0.0002125 1.70803e-18 -4.74076e-32)
(-0.000507871 -1.1357e-05 -2.9493e-18 0.000213998 -1.48491e-18 -8.24287e-32)
(-0.000497655 -3.39767e-06 8.02108e-33 0.00021166 1.91016e-33 -5.74826e-63)
(-0.000496967 1.89625e-08 -3.43951e-18 0.000211474 -1.4674e-18 -8.14566e-32)
(-0.000496827 1.21846e-06 -3.44743e-18 0.000211427 -9.47598e-19 -2.28128e-47)
(-0.000498596 1.54971e-06 3.4597e-18 0.000212029 1.05656e-18 -2.54359e-47)
(-0.000500127 1.45395e-06 6.94065e-18 0.000212578 2.35711e-18 1.63631e-46)
(-0.000501706 1.20028e-06 -4.42487e-18 0.000213145 -9.09129e-19 -7.56991e-32)
(-0.000502871 8.98007e-07 -9.29766e-18 0.000213567 -2.92776e-18 -1.62524e-31)
(-0.00050373 6.03531e-07 -6.67592e-18 0.000213874 -2.32813e-18 -6.46187e-32)
(-0.000504224 3.40151e-07 -3.49876e-18 0.000214041 -1.72878e-18 -5.24786e-46)
(-0.000504423 1.15395e-07 -7.00028e-18 0.000214094 -3.74596e-18 -4.92115e-61)
(-0.000504356 -7.03509e-08 -2.82109e-32 0.000214043 -1.69882e-32 2.14422e-61)
(-0.000504075 -2.20711e-07 2.67118e-18 0.000213907 3.58519e-18 9.95093e-32)
(-0.000503617 -3.40244e-07 -1.34716e-31 0.000213701 -8.22082e-32 -6.7445e-60)
(-0.000503019 -4.33964e-07 -4.90443e-18 0.000213439 -7.40516e-19 -2.05534e-32)
(-0.000502312 -5.06559e-07 -8.68023e-18 0.000213133 -3.34034e-18 -9.27131e-32)
(-0.000501518 -5.62164e-07 2.0049e-18 0.000212792 -2.00807e-18 5.57352e-32)
(-0.00050066 -6.04312e-07 6.94805e-18 0.000212425 5.78307e-18 1.13118e-45)
(-0.000499751 -6.35943e-07 -1.21281e-17 0.000212038 -1.47131e-18 -8.16739e-32)
(-0.000498805 -6.59422e-07 6.35293e-18 0.000211635 7.34259e-19 -2.03797e-32)
(-0.000497831 -6.76631e-07 2.67544e-19 0.000211221 5.91782e-18 1.64253e-31)
(-0.000496837 -6.89197e-07 -1.04105e-17 0.000210799 2.00657e-18 1.11387e-31)
(-0.000495829 -6.98338e-07 -2.13133e-17 0.000210371 -8.68558e-18 -4.82146e-31)
(-0.000494809 -7.04745e-07 1.30151e-32 0.000209938 1.26352e-33 -6.08361e-62)
(-0.000493782 -7.09168e-07 -1.99396e-17 0.000209502 1.71866e-18 1.43108e-31)
(-0.000492749 -7.12334e-07 -1.61479e-17 0.000209064 -1.45067e-18 -8.05283e-32)
(-0.000491713 -7.14529e-07 -2.01292e-17 0.000208624 -5.63189e-18 -3.12633e-31)
(-0.000490674 -7.15901e-07 -1.54522e-17 0.000208183 -9.37493e-18 -2.60207e-31)
(-0.000489633 -7.16835e-07 1.01925e-17 0.000207742 1.34042e-17 -7.62366e-45)
(-0.000488591 -7.17507e-07 -2.08466e-17 0.0002073 7.06135e-18 5.87976e-31)
(-0.000487549 -7.1789e-07 -2.23656e-17 0.000206858 -6.18599e-18 -3.43391e-31)
(-0.000486506 -7.18106e-07 -1.95459e-17 0.000206415 -1.43229e-18 -7.95081e-32)
(-0.000485463 -7.1826e-07 -3.68991e-17 0.000205973 -1.22078e-17 -1.0165e-30)
(-0.00048442 -7.18328e-07 -6.72268e-18 0.00020553 -1.03444e-17 -3.85999e-45)
(-0.000483377 -7.18316e-07 0 0.000205088 0 0)
(-0.000482334 -7.18293e-07 6.69373e-18 0.000204645 1.09034e-17 -1.26651e-44)
(-0.000481291 -7.18268e-07 -1.56648e-17 0.000204203 9.76506e-18 5.4207e-31)
(-0.000480248 -7.18269e-07 -1.47824e-17 0.00020376 -6.43694e-18 -1.78661e-31)
(-0.000479205 -7.18306e-07 -1.50526e-17 0.000203317 -6.5741e-18 -1.82468e-31)
(-0.000478162 -7.18364e-07 -6.63583e-18 0.000202875 -1.20142e-17 -4.84814e-45)
(-0.000477119 -7.18444e-07 3.35306e-17 0.000202433 -4.03822e-18 3.36249e-31)
(-0.000476076 -7.18472e-07 9.91032e-18 0.00020199 1.8849e-17 -2.15542e-44)
(-0.000475033 -7.18458e-07 -1.57734e-17 0.000201548 1.7863e-17 9.91593e-31)
(-0.00047399 -7.18489e-07 -4.58941e-17 0.000201105 -1.52085e-17 -1.26637e-30)
(-0.000472947 -7.18532e-07 3.534e-18 0.000200663 -1.93875e-17 5.38112e-31)
(-0.000471904 -7.18552e-07 6.54898e-18 0.00020022 1.36623e-17 1.04428e-44)
(-0.000470861 -7.18624e-07 -7.39043e-18 0.000199777 1.32418e-17 3.67533e-31)
(-0.000469818 -7.1872e-07 -3.49138e-17 0.000199335 -1.559e-17 -8.65421e-31)
(-0.000468775 -7.18721e-07 2.2431e-17 0.000198892 -1.30982e-17 7.27093e-31)
(-0.000467732 -7.1869e-07 3.24554e-18 0.00019845 7.3745e-18 -2.79617e-45)
(-0.00046669 -7.18729e-07 -2.67801e-17 0.000198008 6.13563e-18 3.40595e-31)
(-0.000465647 -7.18781e-07 -3.05575e-17 0.000197566 -1.37089e-18 -7.60994e-32)
(-0.000464605 -7.1882e-07 -1.23239e-17 0.000197123 7.09493e-18 1.96924e-31)
(-0.000463562 -7.18917e-07 -3.48487e-17 0.000196681 -9.27777e-18 -5.15019e-31)
(-0.00046252 -7.19068e-07 -6.41875e-18 0.000196238 -1.60938e-17 -1.85004e-44)
(-0.000461477 -7.19188e-07 0 0.000195796 0 0)
(-0.000460435 -7.19261e-07 6.38981e-18 0.000195353 1.66275e-17 -2.00146e-46)
(-0.000459392 -7.19328e-07 -4.4275e-17 0.000194911 1.48647e-17 1.23774e-30)
(-0.00045835 -7.19384e-07 -4.06584e-17 0.000194469 -1.85082e-17 -1.02741e-30)
(-0.000457307 -7.19396e-07 1.46417e-31 0.000194027 3.61094e-31 -8.693e-60)
(-0.000456264 -7.19392e-07 -2.90234e-17 0.000193584 1.63444e-17 9.07294e-31)
(-0.000455221 -7.19434e-07 -6.0141e-17 0.000193141 -1.99615e-17 -1.66212e-30)
(-0.000454178 -7.19485e-07 -3.1515e-18 0.000192699 -9.10706e-18 1.09622e-46)
(-0.000453136 -7.1949e-07 -3.37886e-17 0.000192257 7.90417e-18 4.38769e-31)
(-0.000452093 -7.19489e-07 -3.43193e-17 0.000191814 8.0381e-18 4.46203e-31)
(-0.00045105 -7.19496e-07 -6.00976e-17 0.000191372 -1.14915e-17 -9.56858e-31)
(-0.000450007 -7.19459e-07 -6.2451e-18 0.000190929 -1.92598e-17 5.39774e-62)
(-0.000448964 -7.19389e-07 1.95097e-17 0.000190487 6.60885e-19 -1.83432e-32)
(-0.000447922 -7.19355e-07 0 0.000190045 0 0)
(-0.000446879 -7.19337e-07 0 0.000189602 0 0)
(-0.000445836 -7.19303e-07 2.6473e-17 0.00018916 2.09521e-17 -5.81537e-31)
(-0.000444793 -7.19304e-07 -2.05433e-17 0.000188717 -6.54744e-19 -1.81728e-32)
(-0.00044375 -7.19345e-07 3.54422e-17 0.000188275 -1.95038e-17 1.08268e-30)
(-0.000442707 -7.19371e-07 6.1438e-18 0.000187832 2.10665e-17 2.53579e-46)
(-0.000441664 -7.19384e-07 -1.82476e-17 0.00018739 1.0011e-17 2.7786e-31)
(-0.000440621 -7.19433e-07 -2.15673e-17 0.000186947 -6.48604e-19 -1.80024e-32)
(-0.000439579 -7.19497e-07 -6.85156e-17 0.000186505 -1.28571e-17 -1.07057e-30)
(-0.000438536 -7.19539e-07 2.20757e-17 0.000186062 6.45534e-19 -1.79171e-32)
(-0.000437493 -7.19598e-07 -1.62575e-17 0.00018562 2.1695e-17 6.02155e-31)
(-0.00043645 -7.19698e-07 -5.42487e-17 0.000185178 -3.51724e-17 -1.95246e-30)
(-0.000435408 -7.1979e-07 6.24586e-17 0.000184735 -2.09209e-17 1.74201e-30)
(-0.000434365 -7.1985e-07 2.60992e-17 0.000184293 1.2187e-17 -3.38256e-31)
(-0.000433323 -7.19922e-07 2.3336e-17 0.00018385 6.3786e-19 -1.77041e-32)
(-0.00043228 -7.19998e-07 -2.35863e-17 0.000183408 -6.36326e-19 -1.76616e-32)
(-0.000431238 -7.20037e-07 2.38359e-17 0.000182966 6.34792e-19 -1.7619e-32)
(-0.000430195 -7.20074e-07 5.11551e-17 0.000182524 1.3314e-17 -7.39075e-31)
(-0.000429153 -7.20158e-07 -2.43335e-17 0.000182082 -6.31723e-19 -1.75338e-32)
(-0.000428111 -7.20244e-07 2.16107e-17 0.000181639 -1.16655e-17 3.23781e-31)
(-0.000427068 -7.20297e-07 4.96571e-17 0.000181197 1.25731e-18 -6.97944e-32)
(-0.000426026 -7.20372e-07 5.01504e-17 0.000180755 1.25424e-18 -6.96241e-32)
(-0.000424983 -7.20467e-07 3.12191e-17 0.000180312 2.59569e-17 -7.20446e-31)
(-0.000423941 -7.20508e-07 -5.11334e-17 0.00017987 -1.2481e-18 -6.92834e-32)
(-0.000422899 -7.20504e-07 4.57542e-17 0.000179428 -2.45765e-17 1.36427e-30)
(-0.000421856 -7.20526e-07 5.21116e-17 0.000178986 1.24196e-18 -6.89427e-32)
(-0.000420814 -7.2056e-07 2.62994e-17 0.000178544 6.19448e-19 -1.71931e-32)
(-0.000419771 -7.20563e-07 2.65424e-17 0.000178101 6.17913e-19 -1.71505e-32)
(-0.000418729 -7.20578e-07 5.35697e-17 0.000177659 1.23276e-18 -6.84316e-32)
(-0.000417687 -7.20633e-07 2.70267e-17 0.000177217 6.14844e-19 -1.70653e-32)
(-0.000416645 -7.20663e-07 5.45358e-17 0.000176774 1.22662e-18 -6.8091e-32)
(-0.000415603 -7.20651e-07 0 0.000176332 0 0)
(-0.000414561 -7.20658e-07 3.63783e-17 0.00017589 4.22481e-17 -1.17262e-30)
(-0.000413519 -7.20692e-07 -8.10945e-17 0.000175448 1.21729e-17 1.01359e-30)
(-0.000412477 -7.20713e-07 -6.21778e-17 0.000175006 -2.94512e-17 -1.63486e-30)
(-0.000411435 -7.20739e-07 -2.8549e-18 0.000174564 -1.42375e-17 -1.74834e-44)
(-0.000410393 -7.20805e-07 2.43851e-31 0.000174122 1.19811e-30 -7.21084e-60)
(-0.00040935 -7.20871e-07 -4.65971e-31 0.000173679 -2.00723e-30 -1.39341e-58)
(-0.000408308 -7.20899e-07 -2.83321e-18 0.000173237 -1.4593e-17 -5.79667e-45)
(-0.000407266 -7.20922e-07 3.50638e-17 0.000172795 3.00214e-17 -8.33258e-31)
(-0.000406224 -7.20953e-07 -5.36565e-17 0.000172353 2.84611e-17 1.5799e-30)
(-0.000405182 -7.20957e-07 -8.68333e-17 0.000171911 1.31565e-17 1.0955e-30)
(-0.00040414 -7.20945e-07 -9.03468e-17 0.000171469 -1.78471e-18 -1.48606e-31)
(-0.000403098 -7.20959e-07 -9.94381e-17 0.000171027 -4.73187e-17 -3.94006e-30)
(-0.000402055 -7.20979e-07 5.83737e-17 0.000170584 -1.41122e-17 7.83385e-31)
(-0.000401013 -7.20987e-07 5.56517e-18 0.000170142 3.0824e-17 -1.16228e-43)
(-0.000399971 -7.21021e-07 -9.5912e-17 0.0001697 -1.72941e-17 -1.44002e-30)
(-0.000398928 -7.21077e-07 -2.76812e-18 0.000169257 -1.56433e-17 1.24748e-44)
(-0.000397886 -7.21088e-07 -5.7492e-17 0.000168815 3.03456e-17 1.68451e-30)
(-0.000396844 -7.21056e-07 -6.6227e-17 0.000168373 -1.70417e-17 -9.46001e-31)
(-0.000395802 -7.21038e-07 -5.49285e-18 0.000167931 -3.19759e-17 4.90741e-44)
(-0.00039476 -7.21029e-07 0 0.000167489 0 0)
(-0.000393717 -7.21013e-07 5.46393e-18 0.000167047 3.24324e-17 4.99699e-44)
(-0.000392675 -7.21036e-07 -6.52995e-17 0.000166604 -1.15605e-18 -6.41737e-32)
(-0.000391633 -7.2111e-07 2.4724e-17 0.000166162 -4.87534e-17 1.35317e-30)
(-0.000390591 -7.21167e-07 7.16259e-17 0.00016572 3.42626e-17 -1.90195e-30)
(-0.000389549 -7.21186e-07 -9.45786e-17 0.000165278 3.1618e-17 2.63272e-30)
(-0.000388506 -7.21216e-07 -6.98022e-17 0.000164836 -1.79254e-17 -9.95057e-31)
(-0.000387464 -7.21244e-07 -3.91547e-17 0.000164394 -3.43579e-17 -9.53622e-31)
(-0.000386422 -7.21225e-07 6.53212e-17 0.000163952 -1.5868e-17 8.8085e-31)
(-0.00038538 -7.21206e-07 8.02233e-18 0.000163509 5.13517e-17 3.09061e-46)
(-0.000384337 -7.21248e-07 -6.35602e-17 0.000163067 3.33255e-17 1.84993e-30)
(-0.000383295 -7.21304e-07 -1.04007e-16 0.000162625 -1.69266e-18 -1.40942e-31)
(-0.000382252 -7.21323e-07 -1.04671e-16 0.000162182 -1.68805e-18 -1.40558e-31)
(-0.00038121 -7.21349e-07 -1.13268e-16 0.00016174 -5.4365e-17 -4.52678e-30)
(-0.000380168 -7.21393e-07 6.80243e-17 0.000161298 -1.65514e-17 9.18782e-31)
(-0.000379125 -7.21392e-07 -2.76585e-17 0.000160856 5.2783e-17 1.46502e-30)
(-0.000378083 -7.21348e-07 -6.89157e-17 0.000160413 1.67767e-17 9.31293e-31)
(-0.00037704 -7.21325e-07 -7.4592e-17 0.000159971 -1.9109e-17 -1.06076e-30)
(-0.000375998 -7.21321e-07 -7.50203e-17 0.000159529 -1.92148e-17 -1.06663e-30)
(-0.000374955 -7.21296e-07 -7.02437e-17 0.000159086 1.71125e-17 9.49933e-31)
(-0.000373913 -7.21281e-07 -7.5873e-17 0.000158644 -1.94255e-17 -1.07833e-30)
(-0.00037287 -7.21292e-07 -2.58731e-18 0.000158202 -1.84326e-17 1.10937e-46)
(-0.000371828 -7.2127e-07 -6.89808e-17 0.00015776 3.59858e-17 1.99761e-30)
(-0.000370785 -7.21193e-07 -7.19975e-17 0.000157317 1.7556e-17 9.74552e-31)
(-0.000369743 -7.2112e-07 -8.01298e-17 0.000156875 -3.85979e-17 -2.14261e-30)
(-0.000368701 -7.21074e-07 3.77128e-17 0.000156433 5.42737e-19 -1.50639e-32)
(-0.000367658 -7.21028e-07 -7.07491e-17 0.000155991 3.68533e-17 2.04577e-30)
(-0.000366616 -7.20988e-07 -7.62759e-17 0.000155548 -1.07934e-18 -5.99149e-32)
(-0.000365574 -7.20975e-07 -1.17586e-16 0.000155106 -2.07943e-17 -1.73147e-30)
(-0.000364532 -7.2096e-07 -3.85607e-17 0.000154664 -5.366e-19 -1.48936e-32)
(-0.00036349 -7.20928e-07 -8.00647e-17 0.000154222 -2.04608e-17 -1.1358e-30)
(-0.000362448 -7.2092e-07 4.1916e-31 0.00015378 3.24923e-30 -4.17182e-70)
(-0.000361405 -7.20933e-07 -7.33653e-17 0.000153338 3.81365e-17 2.11699e-30)
(-0.000360363 -7.20929e-07 -8.12987e-17 0.000152895 -2.07655e-17 -1.15271e-30)
(-0.00035932 -7.20926e-07 -3.96072e-17 0.000152453 -5.28928e-19 -1.46807e-32)
(-0.000358277 -7.20954e-07 -1.2193e-16 0.00015201 -2.14945e-17 -1.78978e-30)
(-0.000357235 -7.20976e-07 -2.47881e-18 0.000151568 -2.00158e-17 -1.52389e-44)
(-0.000356192 -7.20966e-07 -7.55124e-17 0.000151125 3.91892e-17 2.17543e-30)
(-0.000355149 -7.20965e-07 -8.33313e-17 0.000150683 -2.12673e-17 -1.18057e-30)
(-0.000354106 -7.20976e-07 3.57243e-17 0.000150241 -4.01273e-17 1.11375e-30)
(-0.000353064 -7.20949e-07 4.57427e-17 0.000149798 4.13727e-17 -1.14832e-30)
(-0.000352021 -7.20899e-07 -7.9651e-17 0.000149356 1.94921e-17 1.08203e-30)
(-0.000350978 -7.20879e-07 -4.36855e-17 0.000148914 -2.11467e-17 -5.86938e-31)
(-0.000349936 -7.20862e-07 -8.29054e-17 0.000148472 -1.03023e-18 -5.71891e-32)
(-0.000348894 -7.20816e-07 -8.08886e-17 0.000148029 1.98052e-17 1.09941e-30)
(-0.000347851 -7.20789e-07 -8.61261e-17 0.000147587 -2.19572e-17 -1.21887e-30)
(-0.000346809 -7.20806e-07 4.2057e-17 0.000147145 5.10512e-19 -1.41695e-32)
(-0.000345767 -7.208e-07 -8.21153e-17 0.000146703 2.01157e-17 1.11664e-30)
(-0.000344725 -7.20758e-07 -4.7241e-17 0.000146261 -4.29744e-17 -1.19278e-30)
(-0.000343683 -7.20749e-07 3.25868e-31 0.000145818 2.95636e-30 8.89647e-60)
(-0.000342641 -7.20774e-07 4.7551e-18 0.000145376 4.28644e-17 -1.29381e-43)
(-0.000341599 -7.20769e-07 -8.61045e-17 0.000144934 -1.00568e-18 -5.58264e-32)
(-0.000340556 -7.20747e-07 -7.08925e-18 0.000144491 -6.48892e-17 -1.526e-43)
(-0.000339514 -7.20757e-07 4.34461e-17 0.000144049 4.99772e-19 -1.38714e-32)
(-0.000338471 -7.20767e-07 -3.89449e-17 0.000143607 4.31539e-17 1.19776e-30)
(-0.000337429 -7.20741e-07 -4.85203e-17 0.000143164 -4.43443e-17 -1.2308e-30)
(-0.000336386 -7.20726e-07 9.03988e-17 0.000142722 2.30115e-17 -1.27739e-30)
(-0.000335344 -7.20742e-07 -1.25699e-16 0.00014228 6.4874e-17 5.40184e-30)
(-0.000334301 -7.20739e-07 -9.116e-17 0.000141838 -2.31993e-17 -1.28782e-30)
(-0.000333258 -7.20714e-07 -9.15388e-17 0.000141395 -2.32927e-17 -1.293e-30)
(-0.000332216 -7.20716e-07 -4.48056e-17 0.000140953 -4.89028e-19 -1.35732e-32)
(-0.000331173 -7.20734e-07 -8.76968e-17 0.00014051 2.15287e-17 1.19508e-30)
(-0.00033013 -7.20725e-07 -1.37856e-16 0.000140068 -2.40572e-17 -2.00316e-30)
(-0.000329088 -7.20704e-07 -4.56701e-18 0.000139625 -4.53892e-17 1.39866e-43)
(-0.000328045 -7.20701e-07 4.55692e-17 0.000139183 4.82889e-19 -1.34028e-32)
(-0.000327002 -7.2069e-07 0 0.000138741 0 0)
(-0.000325959 -7.20666e-07 2.2618e-18 0.000138298 2.29787e-17 -1.77021e-44)
(-0.000324917 -7.20663e-07 -8.77619e-17 0.000137856 4.5189e-17 2.50849e-30)
(-0.000323874 -7.20678e-07 -9.71409e-17 0.000137414 -4.72866e-17 -2.62493e-30)
(-0.000322831 -7.20686e-07 4.427e-17 0.000136971 -2.27848e-17 6.32405e-31)
(-0.000321789 -7.20704e-07 -8.66943e-17 0.000136529 6.91124e-17 3.8365e-30)
(-0.000320746 -7.20736e-07 -9.15388e-17 0.000136086 2.25018e-17 1.2491e-30)
(-0.000319704 -7.20736e-07 -9.63532e-17 0.000135644 -2.44799e-17 -1.35891e-30)
(-0.000318661 -7.20701e-07 -4.72519e-17 0.000135202 -4.69077e-19 -1.30194e-32)
(-0.000317619 -7.20684e-07 -9.26679e-17 0.00013476 2.27879e-17 1.26498e-30)
(-0.000316576 -7.20689e-07 -1.45055e-16 0.000134317 -2.52127e-17 -2.09937e-30)
(-0.000315534 -7.20687e-07 -5.21809e-17 0.000133875 -4.82765e-17 -1.33994e-30)
(-0.000314491 -7.20711e-07 4.79842e-17 0.000133433 4.62939e-19 -1.28491e-32)
(-0.000313449 -7.20799e-07 -4.81657e-17 0.00013299 -4.61404e-19 -1.28065e-32)
(-0.000312406 -7.20899e-07 -5.05144e-17 0.000132548 -2.46382e-17 -6.83847e-31)
(-0.000311364 -7.20971e-07 2.16052e-18 0.000132106 2.42685e-17 -1.86958e-44)
(-0.000310321 -7.21045e-07 -4.87068e-17 0.000131663 -4.56801e-19 -1.26787e-32)
(-0.000309279 -7.21111e-07 -5.1032e-17 0.000131222 -2.49032e-17 -6.91203e-31)
(-0.000308237 -7.21112e-07 4.27765e-18 0.00013078 4.90745e-17 -7.56111e-44)
(-0.000307195 -7.21077e-07 -9.42215e-17 0.000130337 4.8348e-17 2.68385e-30)
(-0.000306153 -7.21092e-07 -1.03088e-16 0.000129895 -5.03311e-17 -2.79393e-30)
(-0.000305111 -7.21145e-07 4.95964e-17 0.000129453 4.49131e-19 -1.24658e-32)
(-0.000304069 -7.21183e-07 -1.47208e-16 0.000129011 2.35485e-17 1.9608e-30)
(-0.000303027 -7.21233e-07 -1.01999e-16 0.000128569 -2.58712e-17 -1.43614e-30)
(-0.000301985 -7.21306e-07 -1.02341e-16 0.000128127 -2.59556e-17 -1.44082e-30)
(-0.000300943 -7.21319e-07 5.02973e-17 0.000127685 4.42996e-19 -1.22955e-32)
(-0.000299901 -7.21232e-07 -1.00942e-16 0.000127242 -8.82924e-19 -4.90119e-32)
(-0.000298859 -7.21117e-07 4.64966e-17 0.0001268 -5.02143e-17 1.39372e-30)
(-0.000297817 -7.21021e-07 4.13304e-18 0.000126359 5.08267e-17 1.54682e-43)
(-0.000296775 -7.20924e-07 -9.99178e-17 0.000125916 2.46256e-17 1.36699e-30)
(-0.000295733 -7.20853e-07 -4.10412e-18 0.000125474 -5.11699e-17 -2.36211e-43)
(-0.000294692 -7.2085e-07 0 0.000125032 0 0)
(-0.00029365 -7.20862e-07 0 0.00012459 0 0)
(-0.000292608 -7.20819e-07 5.16702e-17 0.000124148 4.30726e-19 -1.1955e-32)
(-0.000291565 -7.20733e-07 2.02314e-18 0.000123706 2.59246e-17 -1.98935e-44)
(-0.000290523 -7.20634e-07 -9.9983e-17 0.000123264 5.11621e-17 2.84006e-30)
(-0.000289481 -7.20509e-07 -1.58534e-16 0.000122821 -2.73709e-17 -2.27908e-30)
(-0.000288439 -7.20387e-07 -4.00289e-18 0.000122379 -5.23522e-17 -6.30166e-46)
(-0.000287397 -7.20328e-07 0 0.000121937 0 0)
(-0.000286355 -7.20336e-07 0 0.000121495 0 0)
(-0.000285312 -7.20371e-07 0 0.000121053 0 0)
(-0.00028427 -7.20416e-07 5.30045e-17 0.00012061 4.18453e-19 -1.16143e-32)
(-0.000283228 -7.20445e-07 0 0.000120168 0 0)
(-0.000282186 -7.20413e-07 0 0.000119726 0 0)
(-0.000281144 -7.20345e-07 -4.95933e-17 0.000119284 5.30911e-17 1.47357e-30)
(-0.000280101 -7.20304e-07 -4.977e-17 0.000118842 5.32549e-17 1.47812e-30)
(-0.000279059 -7.20294e-07 -1.67266e-16 0.0001184 -8.19757e-17 -6.82584e-30)
(-0.000278017 -7.20297e-07 5.01217e-17 0.000117957 -5.35807e-17 1.48716e-30)
(-0.000276974 -7.20345e-07 3.84379e-18 0.000117515 5.41504e-17 1.62953e-46)
(-0.000275932 -7.20428e-07 -5.23856e-17 0.000117073 2.6749e-17 7.42432e-31)
(-0.00027489 -7.20462e-07 -1.90743e-18 0.00011663 -2.72348e-17 -1.27768e-43)
(-0.000273847 -7.20424e-07 4.39667e-31 0.000116188 6.06469e-30 -5.47507e-59)
(-0.000272805 -7.20378e-07 -1.09552e-16 0.000115746 -8.03151e-19 -4.45838e-32)
(-0.000271763 -7.20344e-07 -1.88573e-18 0.000115304 -2.74718e-17 4.21617e-44)
(-0.000270721 -7.20299e-07 5.50905e-17 0.000114862 3.98507e-19 -1.10608e-32)
(-0.000269679 -7.20289e-07 -1.87127e-18 0.000114419 -2.76284e-17 1.66282e-46)
(-0.000268637 -7.20353e-07 1.12669e-16 0.000113977 2.84971e-17 -1.5819e-30)
(-0.000267595 -7.20422e-07 -5.37006e-17 0.000113535 2.73898e-17 7.60219e-31)
(-0.000266553 -7.20448e-07 1.84958e-18 0.000113093 2.78609e-17 -8.56853e-44)
(-0.00026551 -7.20484e-07 -1.09889e-16 0.000112651 2.71562e-17 1.50747e-30)
(-0.000264468 -7.20546e-07 -6.15243e-17 0.000112209 -8.44327e-17 -2.34348e-30)
(-0.000263426 -7.20565e-07 5.79994e-17 0.000111767 2.84786e-17 -7.90438e-31)
(-0.000262384 -7.20551e-07 -1.10826e-16 0.000111325 2.73943e-17 1.52069e-30)
(-0.000261342 -7.20592e-07 -1.81342e-18 0.000110882 -2.82425e-17 2.54967e-46)
(-0.000260299 -7.20685e-07 -1.11445e-16 0.00011044 2.75516e-17 1.52942e-30)
(-0.000259257 -7.20762e-07 -5.8575e-17 0.000109997 -2.87747e-17 -7.98656e-31)
(-0.000258214 -7.20832e-07 3.58344e-18 0.000109555 5.69357e-17 -1.54201e-45)
(-0.000257172 -7.2093e-07 -1.71224e-16 0.000109113 -1.13569e-18 -9.45647e-32)
(-0.000256129 -7.21008e-07 -3.5545e-18 0.000108671 -5.72331e-17 1.77224e-43)
(-0.000255086 -7.21033e-07 -5.56008e-17 0.000108228 2.8315e-17 7.85897e-31)
(-0.000254044 -7.21058e-07 -1.15036e-16 0.000107786 -7.47916e-19 -4.15176e-32)
(-0.000253001 -7.21107e-07 -5.59091e-17 0.000107344 2.84649e-17 7.90059e-31)
(-0.000251959 -7.21141e-07 -1.15621e-16 0.000106901 -7.41778e-19 -4.11769e-32)
(-0.000250917 -7.21156e-07 -5.96971e-17 0.000106459 -2.93524e-17 -8.14691e-31)
(-0.000249876 -7.21186e-07 -5.81008e-17 0.000106017 -3.67822e-19 -1.02091e-32)
(-0.000248834 -7.2122e-07 -1.1649e-16 0.000105575 -7.32577e-19 -4.06661e-32)
(-0.000247792 -7.21242e-07 -5.83886e-17 0.000105134 -3.64755e-19 -1.0124e-32)
(-0.000246751 -7.21285e-07 -1.17063e-16 0.000104692 -7.26444e-19 -4.03258e-32)
(-0.000245709 -7.21366e-07 -1.19053e-16 0.00010425 -3.00654e-17 -1.66896e-30)
(-0.000244666 -7.2146e-07 3.08264e-31 0.000103807 4.89891e-30 -5.89684e-59)
(-0.000243624 -7.21559e-07 -1.14533e-16 0.000103365 5.82498e-17 3.23351e-30)
(-0.000242581 -7.21654e-07 -1.16512e-16 0.000102922 2.88396e-17 1.60092e-30)
(-0.000241538 -7.21694e-07 -1.81064e-16 0.00010248 -6.03142e-17 -5.02216e-30)
(-0.000240495 -7.2167e-07 -1.66877e-18 0.000102037 -2.96935e-17 -4.53925e-44)
(-0.000239453 -7.21651e-07 -1.15708e-16 0.000101595 5.88207e-17 3.2652e-30)
(-0.00023841 -7.21663e-07 -1.20962e-16 0.000101153 -3.05338e-17 -1.69496e-30)
(-0.000237367 -7.21673e-07 -6.14384e-17 0.000100711 -3.02501e-17 -8.39608e-31)
(-0.000236325 -7.21703e-07 -5.66486e-17 0.000100268 5.95905e-17 1.65397e-30)
(-0.000235282 -7.21792e-07 -1.21762e-16 9.98256e-05 -3.073e-17 -1.70586e-30)
(-0.000234239 -7.21879e-07 7.73973e-31 9.93829e-05 1.33689e-29 -3.21843e-58)
(-0.000233196 -7.2189e-07 -1.19053e-16 9.89401e-05 2.94863e-17 1.63681e-30)
(-0.000232153 -7.21857e-07 -6.36919e-17 9.84977e-05 -6.08219e-17 -1.68814e-30)
(-0.00023111 -7.21822e-07 -6.25039e-32 9.80556e-05 -1.67782e-30 2.0196e-59)
(-0.000230067 -7.21753e-07 -5.9141e-17 9.76133e-05 3.00351e-17 8.33639e-31)
(-0.000229024 -7.21682e-07 -1.20151e-16 9.71708e-05 2.97658e-17 1.65233e-30)
(-0.000227982 -7.21705e-07 -1.81425e-16 9.67283e-05 2.94994e-17 2.45631e-30)
(-0.000226939 -7.21818e-07 -1.23842e-16 9.62859e-05 -3.124e-17 -1.73417e-30)
(-0.000225896 -7.21925e-07 -6.28322e-17 9.58433e-05 -3.09699e-17 -8.59586e-31)
(-0.000224853 -7.22018e-07 -5.98348e-17 9.54007e-05 3.03716e-17 8.42978e-31)
(-0.00022381 -7.22129e-07 -1.84574e-16 9.49583e-05 -9.88361e-19 -8.22971e-32)
(-0.000222767 -7.22183e-07 -6.16538e-17 9.4516e-05 -3.27919e-19 -9.10154e-33)
(-0.000221725 -7.22119e-07 -1.22026e-16 9.40738e-05 3.02434e-17 1.67885e-30)
(-0.000220683 -7.22026e-07 -1.25352e-16 9.36317e-05 -3.16099e-17 -1.7547e-30)
(-0.00021964 -7.21998e-07 -6.20376e-17 9.31895e-05 -3.23316e-19 -8.97384e-33)
(-0.000218598 -7.22003e-07 -1.25845e-16 9.27472e-05 -3.17307e-17 -1.76141e-30)
(-0.000217555 -7.22011e-07 -7.96989e-31 9.23045e-05 -1.72817e-29 3.1203e-58)
(-0.000216513 -7.22058e-07 -1.23329e-16 9.18619e-05 3.05756e-17 1.69728e-30)
(-0.000215469 -7.22118e-07 -6.25408e-17 9.14193e-05 -3.17175e-19 -8.80335e-33)
(-0.000214426 -7.22112e-07 -1.23842e-16 9.09766e-05 3.07063e-17 1.70454e-30)
(-0.000213382 -7.22044e-07 -1.27058e-16 9.05338e-05 -3.20276e-17 -1.77789e-30)
(-0.000212339 -7.2197e-07 -6.43853e-17 9.00913e-05 -3.17735e-17 -8.81891e-31)
(-0.000211295 -7.21896e-07 -6.15682e-17 8.96488e-05 3.12112e-17 8.66283e-31)
(-0.000210252 -7.21819e-07 -1.8801e-16 8.92063e-05 3.06547e-17 2.55251e-30)
(-0.000209209 -7.21777e-07 -1.28007e-16 8.87636e-05 -3.22597e-17 -1.79077e-30)
(-0.000208166 -7.2178e-07 -6.48426e-17 8.83208e-05 -3.20105e-17 -8.8847e-31)
(-0.000207123 -7.21791e-07 -6.2081e-17 8.78781e-05 3.14593e-17 8.73169e-31)
(-0.000206079 -7.21799e-07 -1.27275e-16 8.74356e-05 -6.06706e-19 -3.36789e-32)
(-0.000205036 -7.21795e-07 -6.51793e-17 8.69932e-05 -3.21851e-17 -8.93316e-31)
(-0.000203993 -7.21743e-07 -6.38748e-17 8.65507e-05 -3.00283e-19 -8.33453e-33)
(-0.00020295 -7.21657e-07 -6.39925e-17 8.6108e-05 -2.98747e-19 -8.2919e-33)
(-0.000201907 -7.21595e-07 -6.27085e-17 8.56655e-05 3.17626e-17 8.81588e-31)
(-0.000200864 -7.21569e-07 -1.27058e-16 8.5223e-05 3.15267e-17 1.75008e-30)
(-0.000199821 -7.21559e-07 -1.3007e-16 8.47803e-05 -3.27642e-17 -1.81878e-30)
(-0.000198778 -7.21608e-07 -6.44571e-17 8.43377e-05 -2.92605e-19 -8.12142e-33)
(-0.000197735 -7.21736e-07 -1.92343e-16 8.38952e-05 3.14177e-17 2.61604e-30)
(-0.000196692 -7.21863e-07 -6.46857e-17 8.34527e-05 -2.89535e-19 -8.03619e-33)
(-0.000195649 -7.21937e-07 -1.94398e-16 8.30102e-05 -8.64e-19 -7.19422e-32)
(-0.000194606 -7.22014e-07 -1.29824e-16 8.25678e-05 -5.7293e-19 -3.18039e-32)
(-0.000193563 -7.2211e-07 -1.95073e-16 8.21254e-05 -8.5479e-19 -7.11755e-32)
(-0.00019252 -7.22165e-07 -1.31608e-16 8.16827e-05 -3.31398e-17 -1.83962e-30)
(-0.000191477 -7.22198e-07 -1.31822e-16 8.124e-05 -3.31922e-17 -1.84253e-30)
(-0.000190434 -7.22277e-07 -6.40359e-17 8.07976e-05 3.24034e-17 8.99372e-31)
(-0.000189391 -7.22367e-07 -1.2962e-16 8.03553e-05 3.2181e-17 1.7864e-30)
(-0.000188349 -7.22405e-07 -1.3246e-16 7.99128e-05 -3.33477e-17 -1.85117e-30)
(-0.000187306 -7.22455e-07 -1.3267e-16 7.94705e-05 -3.33989e-17 -1.85401e-30)
(-0.000186264 -7.22566e-07 -1.30293e-16 7.90285e-05 3.23531e-17 1.79596e-30)
(-0.000185222 -7.22653e-07 -1.31801e-16 7.85866e-05 -5.45303e-19 -3.02705e-32)
(-0.00018418 -7.22673e-07 -6.85631e-17 7.81443e-05 -6.62883e-17 -1.83987e-30)
(-0.000183138 -7.22716e-07 -1.26956e-31 7.77019e-05 -3.67593e-30 2.21237e-59)
(-0.000182096 -7.22811e-07 -6.49554e-17 7.72596e-05 3.28465e-17 9.11671e-31)
(-0.000181053 -7.22874e-07 -6.63239e-17 7.68172e-05 -2.66514e-19 -7.39721e-33)
(-0.000180011 -7.22899e-07 -6.64283e-17 7.63748e-05 -2.64979e-19 -7.35461e-33)
(-0.000178968 -7.22964e-07 -1.34306e-16 7.59327e-05 -3.3798e-17 -1.87616e-30)
(-0.000177926 -7.23042e-07 -2.52307e-31 7.54905e-05 -7.39478e-30 6.67584e-59)
(-0.000176883 -7.23046e-07 -1.31021e-16 7.50481e-05 6.62272e-17 3.67634e-30)
(-0.000175841 -7.22991e-07 -2.0174e-16 7.46057e-05 -3.42015e-17 -2.84784e-30)
(-0.000174798 -7.2293e-07 -1.21291e-18 7.41635e-05 -3.34757e-17 -1.02651e-43)
(-0.000173756 -7.22852e-07 -6.46307e-17 7.37213e-05 6.67963e-17 1.85397e-30)
(-0.000172714 -7.22759e-07 -1.35483e-16 7.32789e-05 -3.40846e-17 -1.89207e-30)
(-0.000171671 -7.22712e-07 2.91615e-32 7.28366e-05 1.09592e-34 -1.31917e-63)
(-0.000170629 -7.22738e-07 -1.32313e-16 7.23944e-05 6.68485e-17 3.71083e-30)
(-0.000169587 -7.22805e-07 -1.37232e-16 7.19521e-05 -6.79484e-17 -3.77189e-30)
(-0.000168544 -7.22882e-07 -1.16951e-18 7.15098e-05 -3.37735e-17 -5.17313e-44)
(-0.000167501 -7.2293e-07 -6.53095e-17 7.10673e-05 6.73976e-17 1.87065e-30)
(-0.000166458 -7.22896e-07 -2.02037e-16 7.06246e-05 3.31353e-17 2.75906e-30)
(-0.000165415 -7.22805e-07 -1.35653e-16 7.01822e-05 -4.86987e-19 -2.70332e-32)
(-0.000164372 -7.22737e-07 -1.35844e-16 6.97399e-05 -4.83917e-19 -2.68628e-32)
(-0.00016333 -7.22726e-07 -1.36033e-16 6.92975e-05 -4.80848e-19 -2.66924e-32)
(-0.000162287 -7.22775e-07 -1.37348e-16 6.8855e-05 -3.45382e-17 -1.91725e-30)
(-0.000161245 -7.22905e-07 -6.82043e-17 6.84126e-05 -2.37354e-19 -6.58788e-33)
(-0.000160202 -7.23077e-07 -1.36595e-16 6.79703e-05 -4.7164e-19 -2.61812e-32)
(-0.000159159 -7.23176e-07 -1.38988e-16 6.75279e-05 -6.88683e-17 -3.82295e-30)
(-0.000158115 -7.23184e-07 -6.95785e-17 6.70852e-05 -3.44785e-17 -9.56968e-31)
(-0.000157071 -7.23177e-07 2.1798e-18 6.66423e-05 6.85826e-17 -4.23085e-43)
(-0.000156027 -7.23153e-07 -1.36243e-16 6.61995e-05 3.38772e-17 1.88056e-30)
(-0.000154984 -7.23069e-07 -1.38581e-16 6.57566e-05 -3.48378e-17 -1.93388e-30)
(-0.000153941 -7.23001e-07 -1.37684e-16 6.5314e-05 -4.53209e-19 -2.51579e-32)
(-0.000152898 -7.23032e-07 -6.89309e-17 6.48718e-05 -2.2507e-19 -6.2469e-33)
(-0.000151855 -7.2309e-07 -6.9019e-17 6.44295e-05 -2.23535e-19 -6.20432e-33)
(-0.000150813 -7.23107e-07 -6.91065e-17 6.3987e-05 -2.22e-19 -6.16172e-33)
(-0.00014977 -7.23153e-07 -6.91934e-17 6.35448e-05 -2.20465e-19 -6.11914e-33)
(-0.000148728 -7.23257e-07 -6.92797e-17 6.31028e-05 -2.18931e-19 -6.07659e-33)
(-0.000147685 -7.23328e-07 -6.93654e-17 6.26604e-05 -2.17396e-19 -6.03399e-33)
(-0.000146642 -7.23371e-07 -1.39919e-16 6.22176e-05 -3.5162e-17 -1.95188e-30)
(-0.0001456 -7.23482e-07 3.031e-31 6.1775e-05 9.65374e-30 -8.71519e-59)
(-0.000144557 -7.23618e-07 -6.86159e-17 6.13327e-05 3.46017e-17 9.60389e-31)
(-0.000143514 -7.23646e-07 -7.0698e-17 6.08902e-05 -3.50674e-17 -9.73315e-31)
(-0.000142471 -7.23604e-07 2.34516e-31 6.04478e-05 7.74439e-30 -4.66097e-59)
(-0.000141428 -7.23618e-07 -1.38753e-16 6.00054e-05 3.45222e-17 1.91636e-30)
(-0.000140384 -7.23669e-07 -7.09226e-17 5.95628e-05 -3.51859e-17 -9.76604e-31)
(-0.000139341 -7.23702e-07 -9.66871e-19 5.912e-05 -3.50197e-17 5.41671e-44)
(-0.000138297 -7.23776e-07 9.5963e-19 5.86771e-05 3.50599e-17 -5.38072e-44)
(-0.000137254 -7.23918e-07 -1.39426e-16 5.82345e-05 3.46956e-17 1.92599e-30)
(-0.000136211 -7.24026e-07 -7.02683e-17 5.77919e-05 -2.00507e-19 -5.56513e-33)
(-0.000135168 -7.24031e-07 -7.03468e-17 5.73495e-05 -1.98972e-19 -5.52254e-33)
(-0.000134126 -7.23983e-07 -7.04246e-17 5.69074e-05 -1.97437e-19 -5.47998e-33)
(-0.000133084 -7.23922e-07 -7.05019e-17 5.64654e-05 -1.95903e-19 -5.43743e-33)
(-0.000132042 -7.23847e-07 -2.62198e-31 5.60232e-05 -3.9189e-30 -2.47317e-58)
(-0.000130999 -7.23785e-07 -7.06546e-17 5.55807e-05 -1.92834e-19 -5.35224e-33)
(-0.000129957 -7.23755e-07 -7.073e-17 5.51382e-05 -1.91299e-19 -5.30961e-33)
(-0.000128914 -7.23738e-07 -7.08049e-17 5.46957e-05 -1.89764e-19 -5.267e-33)
(-0.000127872 -7.23733e-07 -6.99919e-17 5.42534e-05 3.52564e-17 9.7856e-31)
(-0.000126829 -7.23754e-07 -1.41906e-16 5.38112e-05 -3.7339e-19 -2.07273e-32)
(-0.000125787 -7.23755e-07 -1.42924e-16 5.33687e-05 -3.58883e-17 -1.9922e-30)
(-0.000124744 -7.23695e-07 -1.42197e-16 5.29263e-05 -3.67251e-19 -2.03864e-32)
(-0.000123701 -7.23596e-07 -1.4234e-16 5.2484e-05 -3.64181e-19 -2.02161e-32)