/*--------------------------------*- C++ -*----------------------------------*\
| =========                 |                                                 |
| \\      /  F ield         | foam-extend: Open Source CFD                    |
|  \\    /   O peration     | Version:     4.1                                |
|   \\  /    A nd           | Web:         http://www.foam-extend.org         |
|    \\/     M anipulation  |                                                 |
\*---------------------------------------------------------------------------*/
FoamFile
{
    version     2.0;
    format      ascii;
    class       pointVectorField;
    location    "1";
    object      pointD;
}
// * * * * * * * * * * * * * * * * * * * * * * * * * * * * * * * * * * * * * //

dimensions      [0 1 0 0 0 0 0];

internalField   nonuniform List<vector> 
26052
(
(-9.34143e-07 -4.81512e-07 -5.3408e-21)
(-2.99393e-06 -2.33171e-06 4.16175e-21)
(-4.84038e-06 -3.42784e-06 8.92536e-22)
(-6.82411e-06 -4.35938e-06 -5.93961e-21)
(-8.8273e-06 -5.28291e-06 -5.86957e-21)
(-1.08562e-05 -6.27378e-06 -9.65999e-21)
(-1.29003e-05 -7.36699e-06 4.35833e-22)
(-1.49612e-05 -8.58653e-06 1.36547e-20)
(-1.70346e-05 -9.94665e-06 5.79202e-21)
(-1.91185e-05 -1.14574e-05 -1.53475e-20)
(-2.12097e-05 -1.31252e-05 -2.10236e-20)
(-2.33062e-05 -1.49545e-05 -1.62277e-20)
(-2.54058e-05 -1.69479e-05 -2.1899e-20)
(-2.75069e-05 -1.91074e-05 -1.49839e-20)
(-2.96081e-05 -2.14339e-05 1.43408e-20)
(-3.17083e-05 -2.39281e-05 1.43408e-20)
(-3.38068e-05 -2.65903e-05 -2.96206e-21)
(-3.59029e-05 -2.94204e-05 -1.63234e-20)
(-3.79961e-05 -3.24184e-05 -2.13937e-20)
(-4.00859e-05 -3.5584e-05 1.51e-20)
(-4.21722e-05 -3.89169e-05 1.72471e-20)
(-4.42546e-05 -4.24169e-05 -2.9482e-21)
(-4.63331e-05 -4.60836e-05 2.66083e-20)
(-4.84075e-05 -4.99166e-05 3.16976e-20)
(-5.04778e-05 -5.39155e-05 -2.6716e-20)
(-5.25438e-05 -5.80801e-05 -3.47423e-20)
(-5.46055e-05 -6.24099e-05 6.87467e-21)
(-5.6663e-05 -6.69045e-05 1.072e-21)
(-5.87162e-05 -7.15636e-05 -2.83303e-20)
(-6.0765e-05 -7.63868e-05 -6.00273e-20)
(-6.28095e-05 -8.13739e-05 1.61171e-20)
(-6.48496e-05 -8.65243e-05 8.18623e-20)
(-6.68854e-05 -9.18378e-05 3.50148e-21)
(-6.89169e-05 -9.7314e-05 -3.04731e-20)
(-7.0944e-05 -0.000102953 -5.45602e-20)
(-7.29668e-05 -0.000108753 -9.02085e-20)
(-7.49852e-05 -0.000114715 -4.13775e-20)
(-7.69993e-05 -0.000120839 4.36136e-20)
(-7.9009e-05 -0.000127123 8.26738e-20)
(-8.10144e-05 -0.000133568 1.33125e-20)
(-8.30154e-05 -0.000140174 -5.20442e-20)
(-8.50121e-05 -0.000146939 -7.43532e-20)
(-8.70045e-05 -0.000153864 -6.42097e-20)
(-8.89925e-05 -0.000160948 5.92431e-20)
(-9.09761e-05 -0.000168191 1.46848e-19)
(-9.29554e-05 -0.000175592 1.06177e-20)
(-9.49304e-05 -0.000183152 -1.38384e-19)
(-9.6901e-05 -0.000190869 -2.29009e-20)
(-9.88672e-05 -0.000198744 1.07616e-19)
(-0.000100829 -0.000206776 -9.39299e-21)
(-0.000102787 -0.000214965 -1.14753e-19)
(-0.00010474 -0.00022331 -2.28946e-20)
(-0.000106689 -0.000231812 5.40405e-20)
(-0.000108633 -0.000240469 1.90589e-20)
(-0.000110574 -0.000249281 2.28961e-20)
(-0.000112509 -0.000258249 -8.73132e-21)
(-0.000114441 -0.000267371 -1.01486e-19)
(-0.000116368 -0.000276647 -6.43751e-20)
(-0.000118291 -0.000286078 6.65098e-20)
(-0.000120209 -0.000295662 1.25969e-19)
(-0.000122124 -0.0003054 -1.45738e-20)
(-0.000124033 -0.00031529 -7.40326e-20)
(-0.000125939 -0.000325333 6.53774e-20)
(-0.00012784 -0.000335528 -1.44683e-20)
(-0.000129737 -0.000345876 -1.16274e-19)
(-0.000131629 -0.000356375 -4.81154e-21)
(-0.000133517 -0.000367025 6.3769e-20)
(-0.000135401 -0.000377826 -1.38136e-20)
(-0.00013728 -0.000388777 -1.23005e-19)
(-0.000139155 -0.000399879 -7.43955e-20)
(-0.000141026 -0.00041113 2.64354e-21)
(-0.000142892 -0.000422531 0)
(-0.000144754 -0.000434081 8.38083e-20)
(-0.000146612 -0.00044578 8.11893e-20)
(-0.000148465 -0.000457627 -8.06341e-20)
(-0.000150314 -0.000469623 6.25085e-21)
(-0.000152159 -0.000481766 1.2431e-19)
(-0.000153999 -0.000494056 3.74494e-20)
(-0.000155835 -0.000506494 -5.40228e-20)
(-0.000157667 -0.000519078 -4.88462e-20)
(-0.000159494 -0.000531809 8.93618e-20)
(-0.000161317 -0.000544685 -5.39096e-20)
(-0.000163135 -0.000557708 -2.24373e-19)
(-0.000164949 -0.000570875 -3.49357e-20)
(-0.000166759 -0.000584188 5.12992e-20)
(-0.000168565 -0.000597645 6.13444e-24)
(-0.000170366 -0.000611246 -6.13749e-24)
(-0.000172163 -0.000624992 5.57951e-20)
(-0.000173955 -0.000638881 5.07291e-20)
(-0.000175743 -0.000652913 -4.91887e-20)
(-0.000177527 -0.000667088 -4.16326e-20)
(-0.000179307 -0.000681405 1.00462e-20)
(-0.000181082 -0.000695865 1.08844e-19)
(-0.000182853 -0.000710467 9.88348e-20)
(-0.000184619 -0.00072521 -1.03298e-19)
(-0.000186381 -0.000740094 -9.3338e-20)
(-0.000188139 -0.000755119 7.44564e-21)
(-0.000189892 -0.000770284 4.94943e-21)
(-0.000191641 -0.00078559 7.40266e-21)
(-0.000193386 -0.000801035 7.39038e-21)
(-0.000195126 -0.00081662 7.36584e-21)
(-0.000196862 -0.000832344 4.90647e-21)
(-0.000198594 -0.000848206 1.68992e-19)
(-0.000200321 -0.000864207 2.17683e-19)
(-0.000202044 -0.000880346 -6.9113e-20)
(-0.000203763 -0.000896622 -1.74754e-19)
(-0.000205477 -0.000913036 -5.69499e-20)
(-0.000207187 -0.000929587 -3.23648e-33)
(-0.000208893 -0.000946274 -5.83719e-20)
(-0.000210594 -0.000963098 6.17132e-20)
(-0.000212291 -0.000980058 2.33929e-19)
(-0.000213984 -0.000997153 1.6647e-19)
(-0.000215672 -0.00101438 4.54871e-20)
(-0.000217356 -0.00103175 -1.96413e-19)
(-0.000219035 -0.00104925 -2.45723e-19)
(-0.000220711 -0.00106688 6.68469e-20)
(-0.000222382 -0.00108465 5.41195e-20)
(-0.000224048 -0.00110255 -1.31749e-19)
(-0.00022571 -0.00112059 5.88089e-20)
(-0.000227368 -0.00113875 5.32153e-20)
(-0.000229022 -0.00115705 -1.9607e-19)
(-0.000230671 -0.00117549 -1.27903e-19)
(-0.000232316 -0.00119405 1.29729e-19)
(-0.000233956 -0.00121274 1.25105e-19)
(-0.000235592 -0.00123157 -1.99637e-19)
(-0.000237224 -0.00125053 -5.79627e-20)
(-0.000238852 -0.00126961 2.63522e-19)
(-0.000240475 -0.00128883 5.47703e-20)
(-0.000242093 -0.00130818 -2.09133e-19)
(-0.000243708 -0.00132766 -2.00903e-19)
(-0.000245318 -0.00134726 1.41934e-19)
(-0.000246924 -0.00136699 3.38708e-19)
(-0.000248525 -0.00138686 1.26531e-19)
(-0.000250122 -0.00140685 -1.35228e-20)
(-0.000251715 -0.00142696 -2.24212e-19)
(-0.000253303 -0.00144721 -2.83665e-19)
(-0.000254887 -0.00146758 1.44926e-19)
(-0.000256467 -0.00148808 2.78238e-19)
(-0.000258042 -0.0015087 -9.3291e-21)
(-0.000259613 -0.00152945 -1.53295e-19)
(-0.00026118 -0.00155033 -8.40911e-21)
(-0.000262742 -0.00157133 -9.2518e-21)
(-0.0002643 -0.00159246 -1.51432e-19)
(-0.000265854 -0.00161371 7.02128e-20)
(-0.000267403 -0.00163508 2.14167e-19)
(-0.000268948 -0.00165658 -8.41673e-20)
(-0.000270489 -0.0016782 -1.5222e-19)
(-0.000272025 -0.00169995 1.49584e-19)
(-0.000273557 -0.00172182 1.43096e-19)
(-0.000275085 -0.00174381 -8.74941e-20)
(-0.000276608 -0.00176592 -8.53232e-20)
(-0.000278127 -0.00178815 -8.39893e-20)
(-0.000279641 -0.00181051 -8.18429e-20)
(-0.000281151 -0.00183298 1.52546e-19)
(-0.000282657 -0.00185558 6.94837e-20)
(-0.000284159 -0.0018783 -8.51775e-20)
(-0.000285656 -0.00190113 -8.80936e-20)
(-0.000287149 -0.00192409 -1.66041e-19)
(-0.000288637 -0.00194716 7.66935e-20)
(-0.000290121 -0.00197036 7.16873e-20)
(-0.000291601 -0.00199367 -2.45578e-19)
(-0.000293077 -0.0020171 4.98169e-21)
(-0.000294548 -0.00204065 2.43459e-19)
(-0.000296014 -0.00206432 -6.61855e-21)
(-0.000297477 -0.0020881 -8.87076e-20)
(-0.000298935 -0.002112 7.50999e-20)
(-0.000300389 -0.00213602 -8.60786e-21)
(-0.000301838 -0.00216015 -8.57866e-20)
(-0.000303283 -0.0021844 8.25047e-20)
(-0.000304724 -0.00220877 -9.14346e-20)
(-0.00030616 -0.00223325 -1.71897e-19)
(-0.000307592 -0.00225784 1.71457e-19)
(-0.00030902 -0.00228255 1.67435e-19)
(-0.000310443 -0.00230737 -2.63579e-19)
(-0.000311862 -0.00233231 -2.57557e-19)
(-0.000313277 -0.00235736 1.74614e-19)
(-0.000314687 -0.00238252 -4.76141e-21)
(-0.000316093 -0.0024078 -8.53308e-20)
(-0.000317495 -0.00243319 3.51541e-19)
(-0.000318892 -0.00245869 1.66698e-19)
(-0.000320285 -0.0024843 -1.85968e-19)
(-0.000321673 -0.00251002 -9.51269e-20)
(-0.000323058 -0.00253585 8.41586e-20)
(-0.000324437 -0.0025618 -1.01138e-20)
(-0.000325813 -0.00258785 -2.77785e-19)
(-0.000327184 -0.00261402 -1.79625e-19)
(-0.000328551 -0.00264029 1.93155e-21)
(-0.000329914 -0.00266667 9.19146e-20)
(-0.000331272 -0.00269316 2.7267e-19)
(-0.000332626 -0.00271976 -8.39058e-21)
(-0.000333975 -0.00274647 -2.80285e-19)
(-0.00033532 -0.00277329 1.8531e-19)
(-0.000336661 -0.00280021 3.66456e-19)
(-0.000337997 -0.00282724 -7.91235e-21)
(-0.00033933 -0.00285438 -9.97959e-20)
(-0.000340657 -0.00288162 8.92751e-20)
(-0.000341981 -0.00290897 -9.69912e-21)
(-0.0003433 -0.00293643 -2.93956e-19)
(-0.000344614 -0.00296399 -1.91254e-19)
(-0.000345925 -0.00299166 6.13785e-24)
(-0.000347231 -0.00301943 -1.00398e-19)
(-0.000348533 -0.0030473 -1.47879e-21)
(-0.00034983 -0.00307528 9.52468e-20)
(-0.000351123 -0.00310336 -1.0144e-19)
(-0.000352412 -0.00313155 9.66848e-20)
(-0.000353696 -0.00315984 3.89689e-19)
(-0.000354976 -0.00318823 -7.9322e-21)
(-0.000356252 -0.00321672 -1.99527e-19)
(-0.000357523 -0.00324532 9.59904e-20)
(-0.00035879 -0.00327401 -9.29067e-21)
(-0.000360052 -0.00330281 -2.07307e-19)
(-0.000361311 -0.00333171 -1.0205e-19)
(-0.000362565 -0.00336071 -1.7597e-21)
(-0.000363814 -0.00338981 -2.04388e-19)
(-0.000365059 -0.00341901 2.44974e-21)
(-0.0003663 -0.00344831 3.01809e-19)
(-0.000367537 -0.00347771 -1.06177e-19)
(-0.000368769 -0.0035072 -2.04679e-19)
(-0.000369997 -0.0035368 0)
(-0.000371221 -0.00356649 1.7229e-21)
(-0.00037244 -0.00359628 1.05421e-19)
(-0.000373655 -0.00362617 3.08346e-19)
(-0.000374865 -0.00365615 9.51646e-20)
(-0.000376071 -0.00368624 -3.18892e-19)
(-0.000377273 -0.00371641 -2.09409e-19)
(-0.000378471 -0.00374669 0)
(-0.000379664 -0.00377706 0)
(-0.000380853 -0.00380752 1.6738e-21)
(-0.000382037 -0.00383808 1.6738e-21)
(-0.000383217 -0.00386874 0)
(-0.000384393 -0.00389949 2.12364e-19)
(-0.000385564 -0.00393033 4.25384e-19)
(-0.000386731 -0.00396126 -1.14883e-19)
(-0.000387894 -0.00399229 -5.42225e-19)
(-0.000389053 -0.00402342 2.27883e-21)
(-0.000390207 -0.00405463 3.23597e-19)
(-0.000391356 -0.00408594 -1.94322e-21)
(-0.000392502 -0.00411734 -1.08939e-19)
(-0.000393643 -0.00414883 -3.2126e-21)
(-0.000394779 -0.00418041 -1.131e-19)
(-0.000395912 -0.00421208 -1.08293e-19)
(-0.00039704 -0.00424384 -1.08919e-19)
(-0.000398163 -0.00427569 3.47479e-21)
(-0.000399283 -0.00430764 2.23547e-19)
(-0.000400398 -0.00433967 2.21003e-19)
(-0.000401508 -0.00437179 2.20068e-19)
(-0.000402615 -0.004404 -2.29106e-19)
(-0.000403717 -0.00443629 -2.23816e-19)
(-0.000404814 -0.00446868 2.23491e-19)
(-0.000405907 -0.00450115 -3.39272e-21)
(-0.000406996 -0.00453371 -2.76368e-21)
(-0.000408081 -0.00456636 -4.89228e-21)
(-0.000409161 -0.0045991 1.12644e-19)
(-0.000410237 -0.00463192 2.232e-19)
(-0.000411309 -0.00466482 -2.33475e-19)
(-0.000412376 -0.00469781 -1.15672e-19)
(-0.000413439 -0.00473089 1.10268e-19)
(-0.000414497 -0.00476405 1.10868e-19)
(-0.000415551 -0.0047973 1.10892e-19)
(-0.000416601 -0.00483063 -1.20376e-19)
(-0.000417647 -0.00486404 -1.18881e-19)
(-0.000418688 -0.00489754 -4.40159e-21)
(-0.000419725 -0.00493112 -4.38932e-21)
(-0.000420757 -0.00496479 -4.3648e-21)
(-0.000421785 -0.00499853 -1.23167e-19)
(-0.000422809 -0.00503236 -1.20261e-19)
(-0.000423829 -0.00506627 2.32999e-19)
(-0.000424844 -0.00510026 3.48357e-19)
(-0.000425854 -0.00513433 -1.25898e-19)
(-0.000426861 -0.00516849 -3.6003e-19)
(-0.000427863 -0.00520272 1.16509e-19)
(-0.000428861 -0.00523703 1.13147e-19)
(-0.000429854 -0.00527143 -2.43135e-19)
(-0.000430843 -0.0053059 1.17361e-19)
(-0.000431828 -0.00534045 1.15442e-19)
(-0.000432808 -0.00537508 -1.2292e-19)
(-0.000433784 -0.00540979 1.17945e-19)
(-0.000434756 -0.00544457 -1.25342e-19)
(-0.000435723 -0.00547944 -2.43287e-19)
(-0.000436686 -0.00551438 1.2014e-19)
(-0.000437645 -0.00554939 2.39203e-19)
(-0.000438599 -0.00558449 2.3706e-19)
(-0.000439549 -0.00561966 -6.96265e-21)
(-0.000440494 -0.0056549 -2.48839e-19)
(-0.000441436 -0.00569023 -2.39341e-21)
(-0.000442372 -0.00572562 1.17533e-19)
(-0.000443305 -0.00576109 -5.26509e-21)
(-0.000444233 -0.00579664 1.19662e-19)
(-0.000445157 -0.00583226 -5.46568e-21)
(-0.000446077 -0.00586795 -1.27732e-19)
(-0.000446992 -0.00590372 -1.28216e-19)
(-0.000447903 -0.00593956 -1.26923e-19)
(-0.000448809 -0.00597547 1.22302e-19)
(-0.000449711 -0.00601146 1.21033e-19)
(-0.000450609 -0.00604752 1.21556e-19)
(-0.000451502 -0.00608365 -5.2853e-21)
(-0.000452391 -0.00611985 -2.55204e-19)
(-0.000453276 -0.00615612 -2.24944e-21)
(-0.000454157 -0.00619246 2.47463e-19)
(-0.000455033 -0.00622887 -6.4202e-21)
(-0.000455904 -0.00626535 -2.57081e-19)
(-0.000456772 -0.0063019 -2.20511e-21)
(-0.000457635 -0.00633852 1.2341e-19)
(-0.000458493 -0.00637521 -1.31167e-19)
(-0.000459348 -0.00641197 -1.29941e-19)
(-0.000460198 -0.0064488 -2.39612e-21)
(-0.000461043 -0.00648569 1.25855e-19)
(-0.000461885 -0.00652265 2.53157e-19)
(-0.000462722 -0.00655968 -4.95023e-21)
(-0.000463554 -0.00659678 -1.32227e-19)
(-0.000464382 -0.00663394 1.245e-19)
(-0.000465206 -0.00667117 1.24512e-19)
(-0.000466026 -0.00670846 -4.61412e-21)
(-0.000466841 -0.00674582 -5.7477e-21)
(-0.000467652 -0.00678324 -5.71087e-21)
(-0.000468458 -0.00682073 -1.35978e-19)
(-0.000469261 -0.00685829 -2.65327e-19)
(-0.000470058 -0.0068959 -3.15532e-21)
(-0.000470852 -0.00693358 2.58337e-19)
(-0.000471641 -0.00697133 -4.66672e-21)
(-0.000472426 -0.00700914 -2.66986e-19)
(-0.000473206 -0.00704701 -4.18321e-21)
(-0.000473982 -0.00708494 1.27231e-19)
(-0.000474754 -0.00712293 -2.67334e-19)
(-0.000475521 -0.00716099 -2.65153e-19)
(-0.000476285 -0.0071991 1.31386e-19)
(-0.000477043 -0.00723728 1.3032e-19)
(-0.000477798 -0.00727552 -2.12596e-21)
(-0.000478548 -0.00731382 -1.36252e-19)
(-0.000479293 -0.00735217 -1.35192e-19)
(-0.000480035 -0.00739059 2.64908e-19)
(-0.000480772 -0.00742907 1.28103e-19)
(-0.000481504 -0.0074676 -2.70708e-19)
(-0.000482233 -0.0075062 1.33282e-19)
(-0.000482957 -0.00754485 1.30847e-19)
(-0.000483676 -0.00758356 -1.36338e-19)
(-0.000484392 -0.00762233 2.67393e-19)
(-0.000485103 -0.00766115 -4.39994e-21)
(-0.000485809 -0.00770003 -4.06887e-19)
(-0.000486512 -0.00773897 1.34496e-19)
(-0.000487209 -0.00777796 4.0213e-19)
(-0.000487903 -0.00781701 1.30593e-19)
(-0.000488592 -0.00785612 -3.88362e-21)
(-0.000489277 -0.00789527 -3.85907e-21)
(-0.000489958 -0.00793449 -1.40076e-19)
(-0.000490634 -0.00797376 -1.39102e-19)
(-0.000491306 -0.00801308 -2.83597e-21)
(-0.000491973 -0.00805245 -2.77359e-19)
(-0.000492636 -0.00809188 -4.13386e-19)
(-0.000493295 -0.00813136 1.36416e-19)
(-0.00049395 -0.0081709 4.09838e-19)
(-0.0004946 -0.00821049 -3.84231e-21)
(-0.000495246 -0.00825012 -1.41164e-19)
(-0.000495887 -0.00828981 -2.71309e-21)
(-0.000496524 -0.00832955 -1.79441e-21)
(-0.000497157 -0.00836935 -1.78213e-21)
(-0.000497785 -0.00840919 -1.76986e-21)
(-0.000498409 -0.00844908 -1.75759e-21)
(-0.000499029 -0.00848902 -1.74532e-21)
(-0.000499644 -0.00852901 -1.41517e-19)
(-0.000500255 -0.00856905 -1.40648e-19)
(-0.000500862 -0.00860914 1.38407e-19)
(-0.000501464 -0.00864928 -1.86277e-21)
(-0.000502062 -0.00868947 -1.40269e-19)
(-0.000502656 -0.0087297 1.38088e-19)
(-0.000503245 -0.00876998 -2.65504e-21)
(-0.00050383 -0.00881031 -2.80822e-19)
(-0.000504411 -0.00885068 1.60537e-22)
(-0.000504987 -0.0088911 2.79021e-19)
(-0.000505559 -0.00893157 1.3798e-19)
(-0.000506126 -0.00897208 -1.5979e-21)
(-0.00050669 -0.00901264 -1.58563e-21)
(-0.000507248 -0.00905324 -1.57336e-21)
(-0.000507803 -0.00909388 -7.83616e-22)
(-0.000508353 -0.00913458 -7.71339e-22)
(-0.000508899 -0.00917531 -1.53654e-21)
(-0.00050944 -0.00921609 -1.52425e-21)
(-0.000509978 -0.00925691 1.40266e-19)
(-0.00051051 -0.00929777 1.39532e-19)
(-0.000511039 -0.00933868 -1.45046e-19)
(-0.000511563 -0.00937963 -1.45022e-19)
(-0.000512083 -0.00942062 -2.92572e-21)
(-0.000512598 -0.00946165 -1.45404e-19)
(-0.000513109 -0.00950272 -1.44663e-19)
(-0.000513616 -0.00954384 -2.13595e-21)
(-0.000514118 -0.00958499 -1.41987e-21)
(-0.000514616 -0.00962618 -6.97649e-22)
(-0.00051511 -0.00966742 -1.38915e-21)
(-0.000515599 -0.00970869 1.41955e-19)
(-0.000516084 -0.00975 1.41968e-19)
(-0.000516565 -0.00979135 -2.02532e-21)
(-0.000517041 -0.00983274 -1.45077e-19)
(-0.000517513 -0.00987417 -1.43731e-19)
(-0.000517981 -0.00991563 -6.54606e-22)
(-0.000518444 -0.00995713 -1.4607e-19)
(-0.000518903 -0.00999867 -1.81245e-21)
(-0.000519357 -0.0100402 2.86701e-19)
(-0.000519808 -0.0100819 1.42468e-19)
(-0.000520253 -0.0101235 -1.87775e-21)
(-0.000520695 -0.0101652 -2.48317e-21)
(-0.000521132 -0.0102069 -2.45859e-21)
(-0.000521565 -0.0102487 1.43757e-19)
(-0.000521993 -0.0102904 1.43781e-19)
(-0.000522417 -0.0103323 -1.79172e-21)
(-0.000522837 -0.0103741 -1.76715e-21)
(-0.000523252 -0.010416 -2.33572e-21)
(-0.000523664 -0.0104579 1.42674e-19)
(-0.00052407 -0.0104999 -2.97356e-21)
(-0.000524473 -0.0105419 -1.46809e-19)
(-0.000524871 -0.0105839 1.4478e-19)
(-0.000525264 -0.0106259 -1.48323e-19)
(-0.000525653 -0.010668 -4.39756e-19)
(-0.000526038 -0.0107101 1.4524e-19)
(-0.000526419 -0.0107523 2.90829e-19)
(-0.000526795 -0.0107944 -2.94437e-19)
(-0.000527167 -0.0108366 -4.40419e-19)
(-0.000527535 -0.0108789 -1.47046e-19)
(-0.000527898 -0.0109211 2.93456e-19)
(-0.000528257 -0.0109634 5.86109e-19)
(-0.000528611 -0.0110058 1.44738e-19)
(-0.000528961 -0.0110481 -2.95913e-19)
(-0.000529307 -0.0110905 -2.95598e-19)
(-0.000529648 -0.0111329 -2.95287e-19)
(-0.000529986 -0.0111753 1.46921e-19)
(-0.000530318 -0.0112178 5.88471e-19)
(-0.000530647 -0.0112602 1.45461e-19)
(-0.000530971 -0.0113028 -1.49306e-19)
(-0.00053129 -0.0113453 -2.97122e-19)
(-0.000531606 -0.0113879 -5.9172e-19)
(-0.000531917 -0.0114304 1.48008e-19)
(-0.000532223 -0.011473 7.38497e-19)
(-0.000532526 -0.0115157 1.46141e-19)
(-0.000532824 -0.0115583 -2.97347e-19)
(-0.000533117 -0.011601 -7.42727e-22)
(-0.000533406 -0.0116437 2.952e-19)
(-0.000533691 -0.0116865 -1.67645e-21)
(-0.000533972 -0.0117292 -1.49508e-19)
(-0.000534248 -0.011772 -7.74428e-22)
(-0.00053452 -0.0118148 -1.49316e-19)
(-0.000534787 -0.0118576 -2.9793e-19)
(-0.00053505 -0.0119004 -1.48999e-19)
(-0.000535309 -0.0119433 2.96822e-19)
(-0.000535564 -0.0119862 4.44603e-19)
(-0.000535814 -0.0120291 -1.82362e-21)
(-0.000536059 -0.012072 -2.98922e-19)
(-0.000536301 -0.0121149 -2.99032e-19)
(-0.000536538 -0.0121579 -2.99151e-19)
(-0.000536771 -0.0122009 -2.64827e-22)
(-0.000536999 -0.0122439 2.97775e-19)
(-0.000537223 -0.0122869 2.97279e-19)
(-0.000537443 -0.0123299 2.97121e-19)
(-0.000537658 -0.0123729 -1.86625e-21)
(-0.000537869 -0.012416 -3.00077e-19)
(-0.000538075 -0.0124591 -8.06817e-22)
(-0.000538278 -0.0125022 -1.18651e-21)
(-0.000538476 -0.0125453 -2.99787e-19)
(-0.000538669 -0.0125884 -2.14263e-22)
(-0.000538858 -0.0126316 2.98651e-19)
(-0.000539043 -0.0126747 2.98511e-19)
(-0.000539224 -0.0127179 -1.50904e-19)
(-0.0005394 -0.0127611 -3.00191e-19)
(-0.000539572 -0.0128043 2.99174e-19)
(-0.000539739 -0.0128475 2.98713e-19)
(-0.000539902 -0.0128908 -3.00974e-19)
(-0.000540061 -0.012934 -3.00513e-19)
(-0.000540215 -0.0129773 1.49694e-19)
(-0.000540366 -0.0130205 -6.70996e-22)
(-0.000540511 -0.0130638 -5.65566e-22)
(-0.000540653 -0.0131071 1.49412e-19)
(-0.00054079 -0.0131504 -1.5085e-19)
(-0.000540922 -0.0131937 -1.50644e-19)
(-0.00054105 -0.013237 -3.56432e-22)
(-0.000541174 -0.0132804 1.49867e-19)
(-0.000541294 -0.0133237 1.49716e-19)
(-0.000541409 -0.0133671 -1.51083e-19)
(-0.00054152 -0.0134104 -1.50908e-19)
(-0.000541627 -0.0134538 -4.39446e-22)
(-0.000541729 -0.0134972 -5.6547e-22)
(-0.000541827 -0.0135406 -4.08763e-22)
(-0.00054192 -0.013584 -3.84259e-22)
(-0.000542009 -0.0136274 -3.72036e-22)
(-0.000542094 -0.0136708 -2.33807e-22)
(-0.000542175 -0.0137142 -2.21675e-22)
(-0.000542251 -0.0137576 -1.50881e-19)
(-0.000542323 -0.013801 -1.50773e-19)
(-0.000542391 -0.0138445 -1.79668e-22)
(-0.000542454 -0.0138879 1.50546e-19)
(-0.000542514 -0.0139313 1.50569e-19)
(-0.000542569 -0.0139748 -1.50913e-19)
(-0.000542621 -0.0140182 -1.50823e-19)
(-0.000542668 -0.0140617 1.50716e-19)
(-0.000542712 -0.0141052 3.0141e-19)
(-0.000542753 -0.0141486 -2.85947e-22)
(-0.00054279 -0.0141921 -1.5096e-19)
(-0.000542824 -0.0142356 -8.9663e-23)
(-0.000542856 -0.014279 -1.50937e-19)
(-0.000542886 -0.0143225 -1.36758e-23)
(-0.000542915 -0.014366 3.0174e-19)
(-0.000542943 -0.0144095 1.50831e-19)
(-0.000542975 -0.014453 -4.53502e-19)
(-0.000542995 -0.0144966 -5.39563e-22)
(-1.05879e-22 -1.05879e-22 0)
(-2.01463e-06 -1.52186e-06 0)
(-3.98875e-06 -2.57485e-06 0)
(-5.94856e-06 -3.50807e-06 0)
(-7.88111e-06 -4.43665e-06 0)
(-9.80943e-06 -5.42798e-06 0)
(-1.17339e-05 -6.52008e-06 0)
(-1.36608e-05 -7.73732e-06 0)
(-1.55898e-05 -9.0952e-06 0)
(-1.75218e-05 -1.0604e-05 0)
(-1.94559e-05 -1.22703e-05 0)
(-2.13915e-05 -1.40986e-05 0)
(-2.33277e-05 -1.60916e-05 0)
(-2.52636e-05 -1.82511e-05 0)
(-2.71986e-05 -2.0578e-05 0)
(-2.9132e-05 -2.30729e-05 0)
(-3.10633e-05 -2.5736e-05 0)
(-3.2992e-05 -2.85673e-05 0)
(-3.49179e-05 -3.15665e-05 0)
(-3.68406e-05 -3.47336e-05 0)
(-3.87599e-05 -3.8068e-05 0)
(-4.06757e-05 -4.15696e-05 0)
(-4.25878e-05 -4.52379e-05 0)
(-4.44962e-05 -4.90726e-05 0)
(-4.64007e-05 -5.30732e-05 0)
(-4.83014e-05 -5.72395e-05 0)
(-5.01981e-05 -6.1571e-05 0)
(-5.20909e-05 -6.60673e-05 0)
(-5.39798e-05 -7.07282e-05 0)
(-5.58647e-05 -7.55532e-05 0)
(-5.77456e-05 -8.0542e-05 0)
(-5.96225e-05 -8.56942e-05 0)
(-6.14954e-05 -9.10095e-05 0)
(-6.33644e-05 -9.64875e-05 0)
(-6.52293e-05 -0.000102128 0)
(-6.70902e-05 -0.00010793 0)
(-6.89472e-05 -0.000113894 0)
(-7.08001e-05 -0.000120019 0)
(-7.26491e-05 -0.000126306 0)
(-7.4494e-05 -0.000132753 0)
(-7.6335e-05 -0.00013936 0)
(-7.81719e-05 -0.000146127 0)
(-8.00049e-05 -0.000153053 0)
(-8.18338e-05 -0.000160139 0)
(-8.36588e-05 -0.000167384 0)
(-8.54797e-05 -0.000174787 0)
(-8.72967e-05 -0.000182348 0)
(-8.91097e-05 -0.000190068 0)
(-9.09186e-05 -0.000197944 0)
(-9.27236e-05 -0.000205978 0)
(-9.45246e-05 -0.000214169 0)
(-9.63215e-05 -0.000222516 0)
(-9.81145e-05 -0.000231019 0)
(-9.99035e-05 -0.000239678 0)
(-0.000101688 -0.000248492 0)
(-0.000103469 -0.000257461 0)
(-0.000105246 -0.000266585 0)
(-0.000107019 -0.000275863 0)
(-0.000108788 -0.000285296 0)
(-0.000110553 -0.000294882 0)
(-0.000112314 -0.000304621 0)
(-0.000114071 -0.000314513 0)
(-0.000115824 -0.000324558 0)
(-0.000117573 -0.000334755 0)
(-0.000119318 -0.000345104 0)
(-0.000121059 -0.000355605 0)
(-0.000122797 -0.000366256 0)
(-0.00012453 -0.000377059 0)
(-0.000126259 -0.000388012 0)
(-0.000127984 -0.000399116 0)
(-0.000129705 -0.000410369 0)
(-0.000131422 -0.000421772 0)
(-0.000133135 -0.000433323 0)
(-0.000134844 -0.000445024 0)
(-0.000136549 -0.000456873 0)
(-0.00013825 -0.00046887 0)
(-0.000139947 -0.000481015 0)
(-0.00014164 -0.000493307 0)
(-0.000143329 -0.000505747 0)
(-0.000145014 -0.000518333 0)
(-0.000146695 -0.000531065 0)
(-0.000148372 -0.000543944 0)
(-0.000150045 -0.000556968 0)
(-0.000151714 -0.000570137 0)
(-0.000153379 -0.000583451 0)
(-0.00015504 -0.00059691 0)
(-0.000156697 -0.000610514 0)
(-0.000158351 -0.000624261 0)
(-0.00016 -0.000638151 0)
(-0.000161645 -0.000652185 0)
(-0.000163286 -0.000666362 0)
(-0.000164923 -0.000680681 0)
(-0.000166556 -0.000695143 0)
(-0.000168185 -0.000709746 0)
(-0.00016981 -0.000724491 0)
(-0.000171431 -0.000739377 0)
(-0.000173048 -0.000754404 0)
(-0.000174662 -0.000769571 0)
(-0.000176271 -0.000784878 0)
(-0.000177876 -0.000800325 0)
(-0.000179477 -0.000815912 0)
(-0.000181074 -0.000831637 0)
(-0.000182667 -0.000847502 0)
(-0.000184256 -0.000863504 0)
(-0.000185841 -0.000879645 0)
(-0.000187423 -0.000895923 0)
(-0.000189 -0.000912339 0)
(-0.000190573 -0.000928891 0)
(-0.000192142 -0.00094558 0)
(-0.000193707 -0.000962406 0)
(-0.000195269 -0.000979367 0)
(-0.000196826 -0.000996464 0)
(-0.000198379 -0.0010137 0)
(-0.000199928 -0.00103106 0)
(-0.000201473 -0.00104857 0)
(-0.000203015 -0.0010662 0)
(-0.000204552 -0.00108397 0)
(-0.000206085 -0.00110187 0)
(-0.000207614 -0.00111991 0)
(-0.000209139 -0.00113808 0)
(-0.000210661 -0.00115638 0)
(-0.000212178 -0.00117481 0)
(-0.000213691 -0.00119338 0)
(-0.0002152 -0.00121208 0)
(-0.000216706 -0.0012309 0)
(-0.000218207 -0.00124986 0)
(-0.000219704 -0.00126895 0)
(-0.000221197 -0.00128817 0)
(-0.000222687 -0.00130752 0)
(-0.000224172 -0.001327 0)
(-0.000225653 -0.00134661 0)
(-0.000227131 -0.00136634 0)
(-0.000228604 -0.00138621 0)
(-0.000230073 -0.0014062 0)
(-0.000231538 -0.00142632 0)
(-0.000233 -0.00144656 0)
(-0.000234457 -0.00146694 0)
(-0.00023591 -0.00148744 0)
(-0.00023736 -0.00150806 0)
(-0.000238805 -0.00152882 0)
(-0.000240246 -0.00154969 0)
(-0.000241684 -0.0015707 0)
(-0.000243117 -0.00159182 0)
(-0.000244546 -0.00161308 0)
(-0.000245972 -0.00163445 0)
(-0.000247393 -0.00165595 0)
(-0.00024881 -0.00167758 0)
(-0.000250224 -0.00169932 0)
(-0.000251633 -0.00172119 0)
(-0.000253038 -0.00174318 0)
(-0.00025444 -0.0017653 0)
(-0.000255837 -0.00178753 0)
(-0.000257231 -0.00180989 0)
(-0.00025862 -0.00183237 0)
(-0.000260005 -0.00185497 0)
(-0.000261387 -0.00187768 0)
(-0.000262764 -0.00190052 0)
(-0.000264138 -0.00192348 0)
(-0.000265507 -0.00194656 0)
(-0.000266872 -0.00196976 0)
(-0.000268234 -0.00199307 0)
(-0.000269591 -0.0020165 0)
(-0.000270945 -0.00204005 0)
(-0.000272294 -0.00206372 0)
(-0.000273639 -0.00208751 0)
(-0.000274981 -0.00211141 0)
(-0.000276318 -0.00213543 0)
(-0.000277652 -0.00215957 0)
(-0.000278981 -0.00218382 0)
(-0.000280307 -0.00220818 0)
(-0.000281628 -0.00223266 0)
(-0.000282945 -0.00225726 0)
(-0.000284259 -0.00228197 0)
(-0.000285568 -0.0023068 0)
(-0.000286874 -0.00233173 0)
(-0.000288175 -0.00235678 0)
(-0.000289473 -0.00238195 0)
(-0.000290766 -0.00240723 0)
(-0.000292056 -0.00243262 0)
(-0.000293341 -0.00245812 0)
(-0.000294623 -0.00248373 0)
(-0.0002959 -0.00250946 0)
(-0.000297174 -0.00253529 0)
(-0.000298443 -0.00256124 0)
(-0.000299709 -0.00258729 0)
(-0.00030097 -0.00261346 0)
(-0.000302228 -0.00263973 0)
(-0.000303481 -0.00266612 0)
(-0.000304731 -0.00269261 0)
(-0.000305976 -0.00271921 0)
(-0.000307218 -0.00274592 0)
(-0.000308455 -0.00277274 0)
(-0.000309689 -0.00279967 0)
(-0.000310918 -0.0028267 0)
(-0.000312144 -0.00285384 0)
(-0.000313365 -0.00288108 0)
(-0.000314583 -0.00290844 0)
(-0.000315796 -0.00293589 0)
(-0.000317006 -0.00296346 0)
(-0.000318212 -0.00299112 0)
(-0.000319413 -0.0030189 0)
(-0.000320611 -0.00304677 0)
(-0.000321804 -0.00307475 0)
(-0.000322994 -0.00310284 0)
(-0.000324179 -0.00313102 0)
(-0.000325361 -0.00315932 0)
(-0.000326538 -0.00318771 0)
(-0.000327712 -0.0032162 0)
(-0.000328882 -0.0032448 0)
(-0.000330047 -0.0032735 0)
(-0.000331209 -0.0033023 0)
(-0.000332366 -0.0033312 0)
(-0.00033352 -0.0033602 0)
(-0.00033467 -0.0033893 0)
(-0.000335815 -0.0034185 0)
(-0.000336957 -0.0034478 0)
(-0.000338095 -0.0034772 0)
(-0.000339228 -0.0035067 0)
(-0.000340358 -0.0035363 0)
(-0.000341484 -0.00356599 0)
(-0.000342605 -0.00359578 0)
(-0.000343723 -0.00362567 0)
(-0.000344837 -0.00365566 0)
(-0.000345946 -0.00368574 0)
(-0.000347052 -0.00371592 0)
(-0.000348154 -0.0037462 0)
(-0.000349251 -0.00377657 0)
(-0.000350345 -0.00380704 0)
(-0.000351435 -0.0038376 0)
(-0.00035252 -0.00386826 0)
(-0.000353602 -0.00389901 0)
(-0.00035468 -0.00392985 0)
(-0.000355754 -0.00396079 0)
(-0.000356823 -0.00399182 0)
(-0.000357889 -0.00402294 0)
(-0.000358951 -0.00405416 0)
(-0.000360008 -0.00408547 0)
(-0.000361062 -0.00411687 0)
(-0.000362112 -0.00414836 0)
(-0.000363158 -0.00417994 0)
(-0.000364199 -0.00421162 0)
(-0.000365237 -0.00424338 0)
(-0.000366271 -0.00427524 0)
(-0.000367301 -0.00430718 0)
(-0.000368327 -0.00433921 0)
(-0.000369348 -0.00437134 0)
(-0.000370366 -0.00440355 0)
(-0.00037138 -0.00443585 0)
(-0.00037239 -0.00446823 0)
(-0.000373396 -0.00450071 0)
(-0.000374397 -0.00453327 0)
(-0.000375395 -0.00456592 0)
(-0.000376389 -0.00459866 0)
(-0.000377379 -0.00463148 0)
(-0.000378365 -0.00466439 0)
(-0.000379346 -0.00469738 0)
(-0.000380324 -0.00473046 0)
(-0.000381298 -0.00476362 0)
(-0.000382268 -0.00479687 0)
(-0.000383234 -0.0048302 0)
(-0.000384196 -0.00486362 0)
(-0.000385153 -0.00489712 0)
(-0.000386107 -0.0049307 0)
(-0.000387057 -0.00496437 0)
(-0.000388003 -0.00499811 0)
(-0.000388945 -0.00503194 0)
(-0.000389883 -0.00506585 0)
(-0.000390817 -0.00509985 0)
(-0.000391747 -0.00513392 0)
(-0.000392673 -0.00516808 0)
(-0.000393594 -0.00520231 0)
(-0.000394512 -0.00523663 0)
(-0.000395426 -0.00527102 0)
(-0.000396336 -0.0053055 0)
(-0.000397242 -0.00534005 0)
(-0.000398144 -0.00537468 0)
(-0.000399042 -0.00540939 0)
(-0.000399936 -0.00544418 0)
(-0.000400826 -0.00547904 0)
(-0.000401712 -0.00551399 0)
(-0.000402594 -0.005549 0)
(-0.000403472 -0.0055841 0)
(-0.000404345 -0.00561927 0)
(-0.000405215 -0.00565452 0)
(-0.000406081 -0.00568984 0)
(-0.000406943 -0.00572524 0)
(-0.000407801 -0.00576072 0)
(-0.000408655 -0.00579626 0)
(-0.000409505 -0.00583188 0)
(-0.000410351 -0.00586758 0)
(-0.000411193 -0.00590335 0)
(-0.000412031 -0.00593919 0)
(-0.000412865 -0.00597511 0)
(-0.000413695 -0.00601109 0)
(-0.000414521 -0.00604715 0)
(-0.000415343 -0.00608328 0)
(-0.000416161 -0.00611948 0)
(-0.000416975 -0.00615576 0)
(-0.000417785 -0.0061921 0)
(-0.000418591 -0.00622851 0)
(-0.000419393 -0.006265 0)
(-0.000420191 -0.00630155 0)
(-0.000420985 -0.00633817 0)
(-0.000421775 -0.00637486 0)
(-0.00042256 -0.00641162 0)
(-0.000423342 -0.00644845 0)
(-0.00042412 -0.00648535 0)
(-0.000424894 -0.00652231 0)
(-0.000425664 -0.00655934 0)
(-0.00042643 -0.00659644 0)
(-0.000427192 -0.0066336 0)
(-0.00042795 -0.00667083 0)
(-0.000428704 -0.00670813 0)
(-0.000429454 -0.00674549 0)
(-0.0004302 -0.00678291 0)
(-0.000430942 -0.00682041 0)
(-0.00043168 -0.00685796 0)
(-0.000432414 -0.00689558 0)
(-0.000433144 -0.00693326 0)
(-0.00043387 -0.00697101 0)
(-0.000434592 -0.00700882 0)
(-0.00043531 -0.00704669 0)
(-0.000436024 -0.00708462 0)
(-0.000436734 -0.00712262 0)
(-0.00043744 -0.00716067 0)
(-0.000438142 -0.00719879 0)
(-0.00043884 -0.00723697 0)