/*--------------------------------*- C++ -*----------------------------------*\
| =========                 |                                                 |
| \\      /  F ield         | foam-extend: Open Source CFD                    |
|  \\    /   O peration     | Version:     4.1                                |
|   \\  /    A nd           | Web:         http://www.foam-extend.org         |
|    \\/     M anipulation  |                                                 |
\*---------------------------------------------------------------------------*/
FoamFile
{
    version     2.0;
    format      ascii;
    class       volScalarField;
    location    "1";
    object      sigmaEq;
}
// * * * * * * * * * * * * * * * * * * * * * * * * * * * * * * * * * * * * * //

dimensions      [1 -1 -2 0 0 0 0];

internalField   nonuniform List<scalar> 
12500
(
1.0747e+08
1.00747e+08
9.88452e+07
9.70364e+07
9.691e+07
9.68846e+07
9.7213e+07
9.74999e+07
9.77958e+07
9.80145e+07
9.81753e+07
9.82667e+07
9.83019e+07
9.82863e+07
9.82296e+07
9.81391e+07
9.80218e+07
9.78832e+07
9.77282e+07
9.75605e+07
9.73834e+07
9.71989e+07
9.70091e+07
9.68153e+07
9.66187e+07
9.642e+07
9.62198e+07
9.60186e+07
9.58166e+07
9.56142e+07
9.54114e+07
9.52085e+07
9.50053e+07
9.48021e+07
9.45989e+07
9.43957e+07
9.41924e+07
9.39891e+07
9.37859e+07
9.35826e+07
9.33793e+07
9.31761e+07
9.29729e+07
9.27697e+07
9.25665e+07
9.23632e+07
9.216e+07
9.19566e+07
9.17534e+07
9.15502e+07
9.1347e+07
9.11438e+07
9.09407e+07
9.07375e+07
9.05344e+07
9.03312e+07
9.01281e+07
8.99249e+07
8.97217e+07
8.95186e+07
8.93155e+07
8.91123e+07
8.8909e+07
8.87058e+07
8.85026e+07
8.82994e+07
8.80962e+07
8.7893e+07
8.76898e+07
8.74866e+07
8.72835e+07
8.70802e+07
8.6877e+07
8.66738e+07
8.64706e+07
8.62674e+07
8.60641e+07
8.58609e+07
8.56577e+07
8.54545e+07
8.52513e+07
8.50481e+07
8.48449e+07
8.46417e+07
8.44386e+07
8.42355e+07
8.40324e+07
8.38293e+07
8.36262e+07
8.34231e+07
8.32199e+07
8.30168e+07
8.28137e+07
8.26105e+07
8.24074e+07
8.22043e+07
8.20012e+07
8.1798e+07
8.15949e+07
8.13919e+07
8.11888e+07
8.09857e+07
8.07826e+07
8.05796e+07
8.03766e+07
8.01735e+07
7.99705e+07
7.97674e+07
7.95643e+07
7.93612e+07
7.91582e+07
7.89551e+07
7.8752e+07
7.85489e+07
7.83458e+07
7.81427e+07
7.79396e+07
7.77365e+07
7.75334e+07
7.73303e+07
7.71273e+07
7.69242e+07
7.67211e+07
7.6518e+07
7.63149e+07
7.61119e+07
7.59087e+07
7.57057e+07
7.55026e+07
7.52995e+07
7.50964e+07
7.48933e+07
7.46901e+07
7.4487e+07
7.42839e+07
7.40808e+07
7.38777e+07
7.36745e+07
7.34714e+07
7.32682e+07
7.30651e+07
7.28619e+07
7.26587e+07
7.24556e+07
7.22525e+07
7.20494e+07
7.18463e+07
7.16432e+07
7.14401e+07
7.1237e+07
7.1034e+07
7.08309e+07
7.06278e+07
7.04247e+07
7.02216e+07
7.00184e+07
6.98152e+07
6.9612e+07
6.94087e+07
6.92056e+07
6.90024e+07
6.87992e+07
6.85961e+07
6.83929e+07
6.81898e+07
6.79867e+07
6.77836e+07
6.75805e+07
6.73775e+07
6.71744e+07
6.69714e+07
6.67683e+07
6.65651e+07
6.6362e+07
6.61588e+07
6.59557e+07
6.57525e+07
6.55494e+07
6.53463e+07
6.51431e+07
6.49399e+07
6.47367e+07
6.45335e+07
6.43303e+07
6.41272e+07
6.3924e+07
6.37208e+07
6.35176e+07
6.33145e+07
6.31113e+07
6.29081e+07
6.27049e+07
6.25017e+07
6.22986e+07
6.20955e+07
6.18924e+07
6.16892e+07
6.14861e+07
6.1283e+07
6.10798e+07
6.08766e+07
6.06735e+07
6.04704e+07
6.02673e+07
6.00643e+07
5.98612e+07
5.96581e+07
5.94551e+07
5.9252e+07
5.9049e+07
5.88459e+07
5.86429e+07
5.84398e+07
5.82368e+07
5.80338e+07
5.78308e+07
5.76277e+07
5.74247e+07
5.72217e+07
5.70187e+07
5.68156e+07
5.66125e+07
5.64094e+07
5.62063e+07
5.60033e+07
5.58002e+07
5.55971e+07
5.5394e+07
5.5191e+07
5.49879e+07
5.47848e+07
5.45817e+07
5.43786e+07
5.41754e+07
5.39723e+07
5.37692e+07
5.35661e+07
5.3363e+07
5.31599e+07
5.29569e+07
5.27538e+07
5.25507e+07
5.23476e+07
5.21446e+07
5.19415e+07
5.17384e+07
5.15354e+07
5.13323e+07
5.11292e+07
5.09261e+07
5.0723e+07
5.05198e+07
5.03167e+07
5.01135e+07
4.99104e+07
4.97072e+07
4.9504e+07
4.93009e+07
4.90978e+07
4.88948e+07
4.86918e+07
4.84888e+07
4.82859e+07
4.80829e+07
4.78799e+07
4.76767e+07
4.74736e+07
4.72704e+07
4.70672e+07
4.68639e+07
4.66608e+07
4.64576e+07
4.62545e+07
4.60513e+07
4.58481e+07
4.56448e+07
4.54415e+07
4.52383e+07
4.50351e+07
4.4832e+07
4.46287e+07
4.44255e+07
4.42223e+07
4.40191e+07
4.38158e+07
4.36126e+07
4.34095e+07
4.32064e+07
4.30033e+07
4.28002e+07
4.25971e+07
4.23939e+07
4.21906e+07
4.19874e+07
4.1784e+07
4.15807e+07
4.13774e+07
4.11741e+07
4.09708e+07
4.07675e+07
4.05642e+07
4.03609e+07
4.01577e+07
3.99544e+07
3.97512e+07
3.95479e+07
3.93447e+07
3.91414e+07
3.89381e+07
3.87349e+07
3.85317e+07
3.83284e+07
3.81252e+07
3.7922e+07
3.77188e+07
3.75155e+07
3.73122e+07
3.7109e+07
3.69058e+07
3.67026e+07
3.64995e+07
3.62965e+07
3.60935e+07
3.58904e+07
3.56873e+07
3.54842e+07
3.5281e+07
3.50779e+07
3.48748e+07
3.46717e+07
3.44685e+07
3.42653e+07
3.40622e+07
3.38591e+07
3.3656e+07
3.34529e+07
3.32498e+07
3.30467e+07
3.28435e+07
3.26403e+07
3.2437e+07
3.22337e+07
3.20306e+07
3.18274e+07
3.16243e+07
3.14211e+07
3.1218e+07
3.10147e+07
3.08113e+07
3.0608e+07
3.04046e+07
3.02012e+07
2.99979e+07
2.97947e+07
2.95916e+07
2.93884e+07
2.91853e+07
2.89822e+07
2.8779e+07
2.85758e+07
2.83726e+07
2.81694e+07
2.79662e+07
2.77629e+07
2.75597e+07
2.73564e+07
2.71531e+07
2.69497e+07
2.67464e+07
2.65432e+07
2.634e+07
2.61369e+07
2.59339e+07
2.57308e+07
2.55276e+07
2.53245e+07
2.51213e+07
2.49182e+07
2.47151e+07
2.45119e+07
2.43087e+07
2.41055e+07
2.39023e+07
2.3699e+07
2.34957e+07
2.32925e+07
2.30892e+07
2.28858e+07
2.26823e+07
2.24788e+07
2.22752e+07
2.20716e+07
2.18681e+07
2.16646e+07
2.14611e+07
2.12576e+07
2.10542e+07
2.08508e+07
2.06473e+07
2.04439e+07
2.02406e+07
2.00374e+07
1.98342e+07
1.96309e+07
1.94276e+07
1.92243e+07
1.90208e+07
1.88173e+07
1.86138e+07
1.84103e+07
1.82068e+07
1.80033e+07
1.77997e+07
1.75962e+07
1.73927e+07
1.71893e+07
1.6986e+07
1.67827e+07
1.65793e+07
1.63758e+07
1.61723e+07
1.59689e+07
1.57655e+07
1.55621e+07
1.53587e+07
1.51553e+07
1.49518e+07
1.47483e+07
1.45449e+07
1.43415e+07
1.41381e+07
1.39347e+07
1.37314e+07
1.3528e+07
1.33245e+07
1.31211e+07
1.29178e+07
1.27145e+07
1.25111e+07
1.23077e+07
1.21045e+07
1.19011e+07
1.16978e+07
1.14944e+07
1.12911e+07
1.10877e+07
1.08843e+07
1.06809e+07
1.04775e+07
1.02741e+07
1.00708e+07
9.86759e+06
9.6643e+06
9.46089e+06
9.25742e+06
9.05403e+06
8.85076e+06
8.64748e+06
8.44399e+06
8.24038e+06
8.03684e+06
7.83344e+06
7.63006e+06
7.42671e+06
7.22335e+06
7.01992e+06
6.81647e+06
6.6131e+06
6.40979e+06
6.20638e+06
6.00296e+06
5.79967e+06
5.59644e+06
5.39315e+06
5.18988e+06
4.98678e+06
4.78378e+06
4.58088e+06
4.37826e+06
4.17602e+06
3.97421e+06
3.77304e+06
3.57276e+06
3.3735e+06
3.17556e+06
2.97954e+06
2.78613e+06
2.59589e+06
2.40957e+06
2.22809e+06
2.05277e+06
1.88443e+06
1.72512e+06
1.57383e+06
1.43403e+06
1.29642e+06
1.17046e+06
1.01657e+06
930440
1.10845e+06
8.40277e+07
8.93017e+07
9.10063e+07
9.09909e+07
9.1047e+07
9.09016e+07
9.08851e+07
9.08471e+07
9.08473e+07
9.0832e+07
9.08102e+07
9.07663e+07
9.0703e+07
9.06182e+07
9.05149e+07
9.03945e+07
9.02601e+07
9.01139e+07
8.99583e+07
8.97949e+07
8.96257e+07
8.9452e+07
8.92746e+07
8.90946e+07
8.89126e+07
8.87292e+07
8.85447e+07
8.83594e+07
8.81736e+07
8.79874e+07
8.78009e+07
8.76142e+07
8.74274e+07
8.72404e+07
8.70534e+07
8.68665e+07
8.66795e+07
8.64925e+07
8.63055e+07
8.61185e+07
8.59315e+07
8.57445e+07
8.55575e+07
8.53705e+07
8.51834e+07
8.49965e+07
8.48095e+07
8.46224e+07
8.44354e+07
8.42484e+07
8.40615e+07
8.38745e+07
8.36875e+07
8.35006e+07
8.33137e+07
8.31267e+07
8.29398e+07
8.27528e+07
8.25658e+07
8.23788e+07
8.21919e+07
8.2005e+07
8.1818e+07
8.1631e+07
8.1444e+07
8.1257e+07
8.107e+07
8.0883e+07
8.0696e+07
8.0509e+07
8.03221e+07
8.01351e+07
7.99481e+07
7.97611e+07
7.95741e+07
7.93871e+07
7.92001e+07
7.90131e+07
7.88262e+07
7.86392e+07
7.84522e+07
7.82653e+07
7.80783e+07
7.78913e+07
7.77044e+07
7.75175e+07
7.73306e+07
7.71436e+07
7.69567e+07
7.67698e+07
7.65829e+07
7.6396e+07
7.62091e+07
7.60221e+07
7.58352e+07
7.56483e+07
7.54615e+07
7.52746e+07
7.50876e+07
7.49008e+07
7.47139e+07
7.4527e+07
7.43401e+07
7.41533e+07
7.39664e+07
7.37796e+07
7.35927e+07
7.34058e+07
7.32189e+07
7.3032e+07
7.28452e+07
7.26584e+07
7.24715e+07
7.22846e+07
7.20977e+07
7.19109e+07
7.17239e+07
7.15371e+07
7.13502e+07
7.11633e+07
7.09764e+07
7.07896e+07
7.06027e+07
7.04158e+07
7.02289e+07
7.00421e+07
6.98552e+07
6.96682e+07
6.94814e+07
6.92945e+07
6.91076e+07
6.89207e+07
6.87338e+07
6.85469e+07
6.83599e+07
6.8173e+07
6.79862e+07
6.77992e+07
6.76123e+07
6.74254e+07
6.72385e+07
6.70515e+07
6.68646e+07
6.66776e+07
6.64907e+07
6.63039e+07
6.6117e+07
6.59301e+07
6.57432e+07
6.55563e+07
6.53694e+07
6.51825e+07
6.49956e+07
6.48087e+07
6.46218e+07
6.44348e+07
6.42479e+07
6.40609e+07
6.38739e+07
6.3687e+07
6.35001e+07
6.33131e+07
6.31262e+07
6.29392e+07
6.27524e+07
6.25655e+07
6.23785e+07
6.21917e+07
6.20048e+07
6.18179e+07
6.1631e+07
6.14441e+07
6.12572e+07
6.10703e+07
6.08834e+07
6.06965e+07
6.05095e+07
6.03225e+07
6.01356e+07
5.99487e+07
5.97618e+07
5.95748e+07
5.93879e+07
5.92009e+07
5.90139e+07
5.8827e+07
5.864e+07
5.8453e+07
5.82661e+07
5.80791e+07
5.78922e+07
5.77052e+07
5.75183e+07
5.73313e+07
5.71444e+07
5.69575e+07
5.67706e+07
5.65837e+07
5.63967e+07
5.62099e+07
5.6023e+07
5.5836e+07
5.56491e+07
5.54622e+07
5.52754e+07
5.50885e+07
5.49017e+07
5.47148e+07
5.4528e+07
5.43411e+07
5.41543e+07
5.39674e+07
5.37805e+07
5.35937e+07
5.34069e+07
5.32202e+07
5.30333e+07
5.28464e+07
5.26596e+07
5.24727e+07
5.22859e+07
5.2099e+07
5.19122e+07
5.17253e+07
5.15385e+07
5.13517e+07
5.11647e+07
5.09778e+07
5.0791e+07
5.06041e+07
5.04173e+07
5.02304e+07
5.00435e+07
4.98566e+07
4.96697e+07
4.94828e+07
4.92959e+07
4.9109e+07
4.89221e+07
4.87353e+07
4.85485e+07
4.83616e+07
4.81747e+07
4.79879e+07
4.7801e+07
4.76141e+07
4.74272e+07
4.72404e+07
4.70535e+07
4.68667e+07
4.66798e+07
4.64928e+07
4.63059e+07
4.6119e+07
4.59321e+07
4.57452e+07
4.55583e+07
4.53714e+07
4.51845e+07
4.49977e+07
4.48109e+07
4.4624e+07
4.44372e+07
4.42504e+07
4.40635e+07
4.38766e+07
4.36897e+07
4.35027e+07
4.33158e+07
4.31288e+07
4.29419e+07
4.27549e+07
4.2568e+07
4.2381e+07
4.21941e+07
4.20071e+07
4.18201e+07
4.1633e+07
4.14461e+07
4.12592e+07
4.10722e+07
4.08852e+07
4.06983e+07
4.05113e+07
4.03243e+07
4.01373e+07
3.99504e+07
3.97634e+07
3.95765e+07
3.93896e+07
3.92027e+07
3.90157e+07
3.88286e+07
3.86416e+07
3.84546e+07
3.82675e+07
3.80805e+07
3.78935e+07
3.77065e+07
3.75194e+07
3.73324e+07
3.71453e+07
3.69582e+07
3.67712e+07
3.65842e+07
3.63972e+07
3.62102e+07
3.60232e+07
3.58362e+07
3.56492e+07
3.54622e+07
3.52752e+07
3.50882e+07
3.49012e+07
3.47142e+07
3.45273e+07
3.43403e+07
3.41533e+07
3.39664e+07
3.37795e+07
3.35925e+07
3.34056e+07
3.32188e+07
3.30319e+07
3.2845e+07
3.26581e+07
3.24713e+07
3.22843e+07
3.20974e+07
3.19105e+07
3.17236e+07
3.15367e+07
3.13498e+07
3.1163e+07
3.09762e+07
3.07893e+07
3.06023e+07
3.04153e+07
3.02284e+07
3.00414e+07
2.98545e+07
2.96676e+07
2.94807e+07
2.92938e+07
2.91068e+07
2.89197e+07
2.87327e+07
2.85458e+07
2.83587e+07
2.81717e+07
2.79847e+07
2.77977e+07
2.76106e+07
2.74237e+07
2.72368e+07
2.70498e+07
2.68628e+07
2.66759e+07
2.64891e+07
2.63021e+07
2.61151e+07
2.59281e+07
2.57411e+07
2.55541e+07
2.53672e+07
2.51802e+07
2.49932e+07
2.48062e+07
2.46193e+07
2.44323e+07
2.42454e+07
2.40584e+07
2.38716e+07
2.36847e+07
2.34979e+07
2.3311e+07
2.3124e+07
2.29371e+07
2.27502e+07
2.25633e+07
2.23763e+07
2.21893e+07
2.20024e+07
2.18155e+07
2.16285e+07
2.14414e+07
2.12544e+07
2.10672e+07
2.088e+07
2.06929e+07
2.05058e+07
2.03186e+07
2.01315e+07
1.99444e+07
1.97572e+07
1.95699e+07
1.93827e+07
1.91957e+07
1.90087e+07
1.88216e+07
1.86345e+07
1.84476e+07
1.82605e+07
1.80734e+07
1.78864e+07
1.76993e+07
1.75122e+07
1.73251e+07
1.71381e+07
1.69509e+07
1.67638e+07
1.65765e+07
1.63894e+07
1.62022e+07
1.60152e+07
1.58282e+07
1.56411e+07
1.54541e+07
1.52671e+07
1.50799e+07
1.48928e+07
1.47058e+07
1.45188e+07
1.43317e+07
1.41445e+07
1.39575e+07
1.37705e+07
1.35835e+07
1.33965e+07
1.32095e+07
1.30224e+07
1.28353e+07
1.26484e+07
1.24616e+07
1.22746e+07
1.20876e+07
1.19007e+07
1.17138e+07
1.15268e+07
1.13397e+07
1.11529e+07
1.09662e+07
1.07794e+07
1.05925e+07
1.04056e+07
1.02186e+07
1.00316e+07
9.84481e+06
9.65808e+06
9.47137e+06
9.28463e+06
9.09784e+06
8.91103e+06
8.72422e+06
8.53744e+06
8.35071e+06
8.16404e+06
7.97741e+06
7.79071e+06
7.60392e+06
7.41724e+06
7.23073e+06
7.04411e+06
6.85738e+06
6.67074e+06
6.48432e+06
6.29799e+06
6.11167e+06
5.92545e+06
5.7392e+06
5.55285e+06
5.36664e+06
5.1807e+06
4.99492e+06
4.80911e+06
4.62346e+06
4.43809e+06
4.25288e+06
4.06789e+06
3.88324e+06
3.6991e+06
3.51552e+06
3.33257e+06
3.1503e+06
2.96897e+06
2.78888e+06
2.61006e+06
2.4326e+06
2.25676e+06
2.08307e+06
1.91161e+06
1.74171e+06
1.57426e+06
1.40802e+06
1.24631e+06
1.0875e+06
958589
895019
1.08405e+06
1.6458e+06
6.61574e+07
7.51581e+07
8.04227e+07
8.24254e+07
8.33627e+07
8.35477e+07
8.35476e+07
8.34046e+07
8.32504e+07
8.30797e+07
8.29179e+07
8.27576e+07
8.26016e+07
8.24462e+07
8.2291e+07
8.21345e+07
8.19764e+07
8.18167e+07
8.16553e+07
8.14922e+07
8.13277e+07
8.11622e+07
8.09957e+07
8.08284e+07
8.06606e+07
8.04923e+07
8.03237e+07
8.01547e+07
7.99857e+07
7.98164e+07
7.9647e+07
7.94776e+07
7.93082e+07
7.91387e+07
7.8969e+07
7.87994e+07
7.86298e+07
7.84602e+07
7.82906e+07
7.81211e+07
7.79515e+07
7.77818e+07
7.76122e+07
7.74426e+07
7.72729e+07
7.71033e+07
7.69337e+07
7.67642e+07
7.65945e+07
7.64249e+07
7.62554e+07
7.60858e+07
7.59162e+07
7.57466e+07
7.5577e+07
7.54074e+07
7.52379e+07
7.50684e+07
7.48988e+07
7.47291e+07
7.45595e+07
7.43899e+07
7.42204e+07
7.40507e+07
7.38812e+07
7.37115e+07
7.35419e+07
7.33723e+07
7.32027e+07
7.30331e+07
7.28634e+07
7.26939e+07
7.25243e+07
7.23547e+07
7.2185e+07
7.20155e+07
7.18459e+07
7.16763e+07
7.15067e+07
7.13371e+07
7.11675e+07
7.0998e+07
7.08284e+07
7.06589e+07
7.04892e+07
7.03197e+07
7.01502e+07
6.99806e+07
6.9811e+07
6.96415e+07
6.9472e+07
6.93024e+07
6.91329e+07
6.89634e+07
6.87938e+07
6.86242e+07
6.84548e+07
6.82853e+07
6.81157e+07
6.79462e+07
6.77767e+07
6.76072e+07
6.74377e+07
6.72682e+07
6.70987e+07
6.69292e+07
6.67597e+07
6.65902e+07
6.64207e+07
6.62512e+07
6.60817e+07
6.59122e+07
6.57427e+07
6.55732e+07
6.54037e+07
6.52342e+07
6.50647e+07
6.48952e+07
6.47257e+07
6.45562e+07
6.43866e+07
6.42172e+07
6.40477e+07
6.38782e+07
6.37086e+07
6.35392e+07
6.33697e+07
6.32001e+07
6.30306e+07
6.28611e+07
6.26915e+07
6.2522e+07
6.23525e+07
6.2183e+07
6.20134e+07
6.18439e+07
6.16744e+07
6.15049e+07
6.13353e+07
6.11658e+07
6.09963e+07
6.08267e+07
6.06572e+07
6.04876e+07
6.03181e+07
6.01485e+07
5.9979e+07
5.98095e+07
5.964e+07
5.94705e+07
5.9301e+07
5.91314e+07
5.89619e+07
5.87923e+07
5.86227e+07
5.84532e+07
5.82837e+07
5.81142e+07
5.79446e+07
5.7775e+07
5.76055e+07
5.7436e+07
5.72664e+07
5.70968e+07
5.69273e+07
5.67578e+07
5.65883e+07
5.64188e+07
5.62492e+07
5.60797e+07
5.59101e+07
5.57406e+07
5.55711e+07
5.54016e+07
5.5232e+07
5.50625e+07
5.4893e+07
5.47234e+07
5.45538e+07
5.43843e+07
5.42148e+07
5.40452e+07
5.38757e+07
5.37061e+07
5.35365e+07
5.33669e+07
5.31974e+07
5.30278e+07
5.28582e+07
5.26886e+07
5.25191e+07
5.23495e+07
5.218e+07
5.20104e+07
5.18409e+07
5.16713e+07
5.15018e+07
5.13323e+07
5.11627e+07
5.09932e+07
5.08238e+07
5.06543e+07
5.04847e+07
5.03152e+07
5.01457e+07
4.99763e+07
4.98068e+07
4.96373e+07
4.94679e+07
4.92983e+07
4.91288e+07
4.89594e+07
4.87899e+07
4.86204e+07
4.8451e+07
4.82816e+07
4.81121e+07
4.79426e+07
4.77731e+07
4.76037e+07
4.74342e+07
4.72647e+07
4.70953e+07
4.69258e+07
4.67564e+07
4.65869e+07
4.64174e+07
4.62479e+07
4.60784e+07
4.59089e+07
4.57394e+07
4.557e+07
4.54005e+07
4.5231e+07
4.50614e+07
4.4892e+07
4.47225e+07
4.4553e+07
4.43834e+07
4.4214e+07
4.40446e+07
4.38751e+07
4.37055e+07
4.35361e+07
4.33666e+07
4.31971e+07
4.30276e+07
4.28581e+07
4.26886e+07
4.25191e+07
4.23497e+07
4.21802e+07
4.20107e+07
4.18411e+07
4.16716e+07
4.15021e+07
4.13327e+07
4.11632e+07
4.09937e+07
4.08243e+07
4.06548e+07
4.04853e+07
4.03158e+07
4.01463e+07
3.99768e+07
3.98073e+07
3.96378e+07
3.94683e+07
3.92988e+07
3.91293e+07
3.89597e+07
3.87901e+07
3.86205e+07
3.84509e+07
3.82814e+07
3.81119e+07
3.79423e+07
3.77727e+07
3.76031e+07
3.74336e+07
3.72641e+07
3.70945e+07
3.69249e+07
3.67554e+07
3.65858e+07
3.64163e+07
3.62467e+07
3.60772e+07
3.59076e+07
3.57381e+07
3.55685e+07
3.53989e+07
3.52293e+07
3.50597e+07
3.48901e+07
3.47206e+07
3.45509e+07
3.43813e+07
3.42117e+07
3.40421e+07
3.38725e+07
3.37029e+07
3.35332e+07
3.33636e+07
3.3194e+07
3.30244e+07
3.28548e+07
3.26853e+07
3.25158e+07
3.23462e+07
3.21766e+07
3.20071e+07
3.18374e+07
3.16678e+07
3.14983e+07
3.13288e+07
3.11593e+07
3.09897e+07
3.08202e+07
3.06508e+07
3.04812e+07
3.03116e+07
3.01422e+07
2.99727e+07
2.98032e+07
2.96337e+07
2.94643e+07
2.92948e+07
2.91253e+07
2.89558e+07
2.87864e+07
2.86169e+07
2.84474e+07
2.8278e+07
2.81086e+07
2.79391e+07
2.77695e+07
2.75999e+07
2.74304e+07
2.72609e+07
2.70915e+07
2.6922e+07
2.67525e+07
2.65831e+07
2.64135e+07
2.62439e+07
2.60743e+07
2.59048e+07
2.57352e+07
2.55657e+07
2.53962e+07
2.52268e+07
2.50572e+07
2.48876e+07
2.47181e+07
2.45486e+07
2.4379e+07
2.42095e+07
2.40401e+07
2.38706e+07
2.37011e+07
2.35315e+07
2.3362e+07
2.31925e+07
2.3023e+07
2.28535e+07
2.2684e+07
2.25146e+07
2.23451e+07
2.21757e+07
2.20062e+07
2.18367e+07
2.16672e+07
2.14978e+07
2.13284e+07
2.11589e+07
2.09895e+07
2.082e+07
2.06506e+07
2.04811e+07
2.03116e+07
2.01421e+07
1.99726e+07
1.98032e+07
1.96337e+07
1.94641e+07
1.92945e+07
1.91249e+07
1.89553e+07
1.87857e+07
1.86163e+07
1.84467e+07
1.82771e+07
1.81075e+07
1.7938e+07
1.77683e+07
1.75986e+07
1.74291e+07
1.72597e+07
1.70902e+07
1.69206e+07
1.67511e+07
1.65816e+07
1.6412e+07
1.62425e+07
1.60729e+07
1.59034e+07
1.57339e+07
1.55645e+07
1.5395e+07
1.52254e+07
1.50558e+07
1.48863e+07
1.47168e+07
1.45475e+07
1.43781e+07
1.42086e+07
1.4039e+07
1.38696e+07
1.37003e+07
1.35308e+07
1.33614e+07
1.3192e+07
1.30226e+07
1.28531e+07
1.26837e+07
1.25145e+07
1.23452e+07
1.21759e+07
1.20066e+07
1.18373e+07
1.16679e+07
1.14985e+07
1.13295e+07
1.11605e+07
1.09912e+07
1.0822e+07
1.06529e+07
1.04838e+07
1.03146e+07
1.01455e+07
9.97655e+06
9.80762e+06
9.63866e+06
9.46966e+06
9.30063e+06
9.13161e+06
8.96275e+06
8.79407e+06
8.62539e+06
8.45662e+06
8.28777e+06
8.11898e+06
7.95037e+06
7.78194e+06
7.61345e+06
7.44481e+06
7.27627e+06
7.10798e+06
6.93976e+06
6.7715e+06
6.60338e+06
6.43529e+06
6.26712e+06
6.09905e+06
5.93131e+06
5.7638e+06
5.5963e+06
5.42896e+06
5.26187e+06
5.09477e+06
4.9277e+06
4.76097e+06
4.59472e+06
4.42862e+06
4.26264e+06
4.09707e+06
3.93189e+06
3.76702e+06
3.60247e+06
3.43838e+06
3.27477e+06
3.11166e+06
2.94907e+06
2.78702e+06
2.62548e+06
2.46423e+06
2.30335e+06
2.14282e+06
1.98273e+06
1.82337e+06
1.66469e+06
1.50915e+06
1.35955e+06
1.22697e+06
1.12552e+06
1.09772e+06
1.18219e+06
1.46192e+06
1.89552e+06
5.43936e+07
6.36727e+07
7.00304e+07
7.31239e+07
7.48737e+07
7.55723e+07
7.58356e+07
7.58002e+07
7.56542e+07
7.54429e+07
7.52182e+07
7.49911e+07
7.47732e+07
7.4565e+07
7.43676e+07
7.41794e+07
7.39991e+07
7.38252e+07
7.36565e+07
7.34917e+07
7.33298e+07
7.31705e+07
7.30129e+07
7.28566e+07
7.27012e+07
7.25467e+07
7.23927e+07
7.2239e+07
7.20856e+07
7.19325e+07
7.17793e+07
7.16264e+07
7.14735e+07
7.13206e+07
7.11678e+07
7.10149e+07
7.08621e+07
7.07093e+07
7.05564e+07
7.04036e+07
7.02508e+07
7.0098e+07
6.99451e+07
6.97924e+07
6.96395e+07
6.94867e+07
6.93338e+07
6.91811e+07
6.90282e+07
6.88754e+07
6.87227e+07
6.85699e+07
6.84171e+07
6.82643e+07
6.81115e+07
6.79586e+07
6.78058e+07
6.7653e+07
6.75003e+07
6.73474e+07
6.71946e+07
6.70418e+07
6.6889e+07
6.67361e+07
6.65833e+07
6.64305e+07
6.62777e+07
6.61248e+07
6.5972e+07
6.58192e+07
6.56663e+07
6.55135e+07
6.53607e+07
6.52079e+07
6.50551e+07
6.49023e+07
6.47495e+07
6.45967e+07
6.44439e+07
6.42911e+07
6.41383e+07
6.39855e+07
6.38327e+07
6.368e+07
6.35271e+07
6.33743e+07
6.32216e+07
6.30688e+07
6.2916e+07
6.27632e+07
6.26105e+07
6.24577e+07
6.23049e+07
6.21522e+07
6.19995e+07
6.18467e+07
6.16939e+07
6.15412e+07
6.13885e+07
6.12357e+07
6.1083e+07
6.09303e+07
6.07776e+07
6.06248e+07
6.04721e+07
6.03193e+07
6.01666e+07
6.00139e+07
5.98612e+07
5.97084e+07
5.95557e+07
5.9403e+07
5.92503e+07
5.90976e+07
5.89448e+07
5.87921e+07
5.86394e+07
5.84866e+07
5.8334e+07
5.81812e+07
5.80285e+07
5.78757e+07
5.7723e+07
5.75703e+07
5.74175e+07
5.72648e+07
5.71121e+07
5.69594e+07
5.68066e+07
5.66539e+07
5.65011e+07
5.63483e+07
5.61956e+07
5.60429e+07
5.58901e+07
5.57374e+07
5.55847e+07
5.54319e+07
5.52791e+07
5.51264e+07
5.49736e+07
5.48209e+07
5.46681e+07
5.45154e+07
5.43627e+07
5.42099e+07
5.40571e+07
5.39044e+07
5.37517e+07
5.35989e+07
5.34461e+07
5.32934e+07
5.31406e+07
5.29879e+07
5.28351e+07
5.26823e+07
5.25296e+07
5.23768e+07
5.22241e+07
5.20713e+07
5.19186e+07
5.17658e+07
5.16131e+07
5.14603e+07
5.13075e+07
5.11548e+07
5.10021e+07
5.08493e+07
5.06966e+07
5.05439e+07
5.03911e+07
5.02383e+07
5.00856e+07
4.99328e+07
4.978e+07
4.96273e+07
4.94746e+07
4.93219e+07
4.91691e+07
4.90163e+07
4.88636e+07
4.87108e+07
4.8558e+07
4.84053e+07
4.82525e+07
4.80997e+07
4.7947e+07
4.77942e+07
4.76414e+07
4.74886e+07
4.73358e+07
4.71831e+07
4.70303e+07
4.68776e+07
4.67248e+07
4.65721e+07
4.64193e+07
4.62666e+07
4.61139e+07
4.59611e+07
4.58084e+07
4.56557e+07
4.5503e+07
4.53503e+07
4.51976e+07
4.50449e+07
4.48922e+07
4.47395e+07
4.45868e+07
4.44341e+07
4.42814e+07
4.41287e+07
4.39761e+07
4.38234e+07
4.36707e+07
4.3518e+07
4.33653e+07
4.32126e+07
4.30599e+07
4.29072e+07
4.27546e+07
4.26019e+07
4.24493e+07
4.22966e+07
4.21439e+07
4.19912e+07
4.18385e+07
4.16858e+07
4.15331e+07
4.13805e+07
4.12278e+07
4.10751e+07
4.09224e+07
4.07697e+07
4.06169e+07
4.04642e+07
4.03116e+07
4.01589e+07
4.00062e+07
3.98535e+07
3.97008e+07
3.95481e+07
3.93954e+07
3.92427e+07
3.909e+07
3.89373e+07
3.87847e+07
3.8632e+07
3.84793e+07
3.83266e+07
3.81739e+07
3.80212e+07
3.78686e+07
3.77158e+07
3.75631e+07
3.74105e+07
3.72578e+07
3.71051e+07
3.69524e+07
3.67998e+07
3.66471e+07
3.64944e+07
3.63417e+07
3.6189e+07
3.60363e+07
3.58836e+07
3.57309e+07
3.55781e+07
3.54255e+07
3.52728e+07
3.51201e+07
3.49673e+07
3.48146e+07
3.46618e+07
3.4509e+07
3.43563e+07
3.42036e+07
3.40509e+07
3.38981e+07
3.37454e+07
3.35927e+07
3.344e+07
3.32872e+07
3.31344e+07
3.29817e+07
3.2829e+07
3.26763e+07
3.25236e+07
3.23709e+07
3.22181e+07
3.20653e+07
3.19125e+07
3.17597e+07
3.16069e+07
3.14542e+07
3.13015e+07
3.11488e+07
3.0996e+07
3.08432e+07
3.06904e+07
3.05376e+07
3.03849e+07
3.02321e+07
3.00793e+07
2.99266e+07
2.97739e+07
2.96211e+07
2.94684e+07
2.93157e+07
2.91629e+07
2.90102e+07
2.88575e+07
2.87048e+07
2.8552e+07
2.83993e+07
2.82466e+07
2.8094e+07
2.79412e+07
2.77885e+07
2.76359e+07
2.74833e+07
2.73306e+07
2.71779e+07
2.70253e+07
2.68726e+07
2.67199e+07
2.65673e+07
2.64147e+07
2.62621e+07
2.61094e+07
2.59568e+07
2.58042e+07
2.56516e+07
2.5499e+07
2.53464e+07
2.51937e+07
2.50411e+07
2.48884e+07
2.47357e+07
2.45831e+07
2.44306e+07
2.4278e+07
2.41253e+07
2.39726e+07
2.382e+07
2.36673e+07
2.35146e+07
2.3362e+07
2.32093e+07
2.30567e+07
2.29041e+07
2.27515e+07
2.25989e+07
2.24461e+07
2.22935e+07
2.2141e+07
2.19883e+07
2.18356e+07
2.1683e+07
2.15304e+07
2.13778e+07
2.12252e+07
2.10726e+07
2.092e+07
2.07674e+07
2.06148e+07
2.04623e+07
2.03097e+07
2.01572e+07
2.00046e+07
1.98521e+07
1.96996e+07
1.9547e+07
1.93944e+07
1.92419e+07
1.90893e+07
1.89368e+07
1.87843e+07
1.86317e+07
1.84792e+07
1.83268e+07
1.81742e+07
1.80217e+07
1.78692e+07
1.77166e+07
1.75639e+07
1.74113e+07
1.72588e+07
1.71062e+07
1.69537e+07
1.68012e+07
1.66487e+07
1.64961e+07
1.63434e+07
1.61909e+07
1.60384e+07
1.58858e+07
1.57332e+07
1.55808e+07
1.54283e+07
1.52758e+07
1.51233e+07
1.49708e+07
1.48182e+07
1.46657e+07
1.45133e+07
1.43609e+07
1.42085e+07
1.40561e+07
1.39036e+07
1.37512e+07
1.35987e+07
1.34464e+07
1.32941e+07
1.31419e+07
1.29896e+07
1.28372e+07
1.26848e+07
1.25325e+07
1.23803e+07
1.22281e+07
1.20758e+07
1.19236e+07
1.17715e+07
1.16192e+07
1.14671e+07
1.13151e+07
1.11631e+07
1.1011e+07
1.08589e+07
1.0707e+07
1.0555e+07
1.0403e+07
1.02512e+07
1.00995e+07
9.94765e+06
9.79574e+06
9.64398e+06
9.49237e+06
9.34075e+06
9.18916e+06
9.03766e+06
8.8862e+06
8.73468e+06
8.58317e+06
8.43178e+06
8.28055e+06
8.12948e+06
7.97848e+06
7.82744e+06
7.67634e+06
7.52528e+06
7.37436e+06
7.22366e+06
7.07315e+06
6.92269e+06
6.77215e+06
6.62172e+06
6.47164e+06
6.32172e+06
6.17171e+06
6.0218e+06
5.87213e+06
5.72264e+06
5.57334e+06
5.42438e+06
5.27577e+06
5.12721e+06
4.97876e+06
4.83075e+06
4.68312e+06
4.53573e+06
4.38865e+06
4.24219e+06
4.09613e+06
3.95028e+06
3.80497e+06
3.66031e+06
3.51616e+06
3.37243e+06
3.22926e+06
3.08663e+06
2.94451e+06
2.80286e+06
2.66158e+06
2.52063e+06
2.37976e+06
2.23925e+06
2.09928e+06
1.96022e+06
1.82335e+06
1.69046e+06
1.56652e+06
1.45799e+06
1.37954e+06
1.34543e+06
1.38329e+06
1.49948e+06
1.73124e+06
2.01564e+06
4.5664e+07
5.36658e+07
6.00134e+07
6.36619e+07
6.59434e+07
6.70711e+07
6.76104e+07
6.7738e+07
6.76672e+07
6.74772e+07
6.7241e+07
6.69869e+07
6.67364e+07
6.64964e+07
6.62715e+07
6.60614e+07
6.58654e+07
6.56816e+07
6.55081e+07
6.53432e+07
6.51851e+07
6.50324e+07
6.4884e+07
6.47388e+07
6.45961e+07
6.44554e+07
6.43161e+07
6.41778e+07
6.40403e+07
6.39034e+07
6.37669e+07
6.36306e+07
6.34945e+07
6.33586e+07
6.32227e+07
6.30869e+07
6.29511e+07
6.28154e+07
6.26797e+07
6.25439e+07
6.24082e+07
6.22725e+07
6.21367e+07
6.20011e+07
6.18654e+07
6.17297e+07
6.15939e+07
6.14582e+07
6.13226e+07
6.11868e+07
6.10511e+07
6.09155e+07
6.07798e+07
6.0644e+07
6.05084e+07
6.03727e+07
6.02369e+07
6.01012e+07
5.99655e+07
5.98298e+07
5.96941e+07
5.95583e+07
5.94226e+07
5.92869e+07
5.91512e+07
5.90155e+07
5.88797e+07
5.8744e+07
5.86083e+07
5.84726e+07
5.83368e+07
5.82011e+07
5.80654e+07
5.79297e+07
5.7794e+07
5.76583e+07
5.75226e+07
5.73869e+07
5.72512e+07
5.71155e+07
5.69799e+07
5.68441e+07
5.67084e+07
5.65728e+07
5.64371e+07
5.63014e+07
5.61657e+07
5.603e+07
5.58943e+07
5.57586e+07
5.5623e+07
5.54873e+07
5.53516e+07
5.5216e+07
5.50803e+07
5.49447e+07
5.4809e+07
5.46734e+07
5.45378e+07
5.44021e+07
5.42665e+07
5.41308e+07
5.39952e+07
5.38595e+07
5.37239e+07
5.35883e+07
5.34526e+07
5.3317e+07
5.31813e+07
5.30457e+07
5.29101e+07
5.27744e+07
5.26388e+07
5.25032e+07
5.23676e+07
5.2232e+07
5.20963e+07
5.19607e+07
5.18251e+07
5.16895e+07
5.15538e+07
5.14182e+07
5.12826e+07
5.1147e+07
5.10113e+07
5.08756e+07
5.074e+07
5.06044e+07
5.04687e+07
5.03331e+07
5.01975e+07
5.00618e+07
4.99261e+07
4.97905e+07
4.96549e+07
4.95192e+07
4.93836e+07
4.9248e+07
4.91123e+07
4.89766e+07
4.8841e+07
4.87053e+07
4.85697e+07
4.8434e+07
4.82984e+07
4.81628e+07
4.80271e+07
4.78915e+07
4.77559e+07
4.76202e+07
4.74845e+07
4.73488e+07
4.72132e+07
4.70775e+07
4.69419e+07
4.68063e+07
4.66706e+07
4.65349e+07
4.63993e+07
4.62637e+07
4.6128e+07
4.59924e+07
4.58568e+07
4.57211e+07
4.55855e+07
4.54498e+07
4.53142e+07
4.51785e+07
4.50429e+07
4.49073e+07
4.47716e+07
4.46359e+07
4.45003e+07
4.43647e+07
4.4229e+07
4.40934e+07
4.39577e+07
4.38221e+07
4.36865e+07
4.35508e+07
4.34152e+07
4.32796e+07
4.31439e+07
4.30083e+07
4.28726e+07
4.27369e+07
4.26013e+07
4.24656e+07
4.233e+07
4.21943e+07
4.20586e+07
4.1923e+07
4.17873e+07
4.16517e+07
4.15161e+07
4.13804e+07
4.12448e+07
4.11092e+07
4.09736e+07
4.0838e+07
4.07024e+07
4.05668e+07
4.04312e+07
4.02956e+07
4.016e+07
4.00245e+07
3.98889e+07
3.97533e+07
3.96177e+07
3.94821e+07
3.93465e+07
3.92109e+07
3.90753e+07
3.89398e+07
3.88042e+07
3.86686e+07
3.8533e+07
3.83974e+07
3.82618e+07
3.81263e+07
3.79908e+07
3.78552e+07
3.77197e+07
3.75842e+07
3.74486e+07
3.73129e+07
3.71774e+07
3.70418e+07
3.69063e+07
3.67707e+07
3.66352e+07
3.64996e+07
3.6364e+07
3.62284e+07
3.60928e+07
3.59572e+07
3.58217e+07
3.56862e+07
3.55506e+07
3.5415e+07
3.52794e+07
3.51439e+07
3.50083e+07
3.48727e+07
3.47371e+07
3.46016e+07
3.4466e+07
3.43305e+07
3.4195e+07
3.40594e+07
3.39238e+07
3.37882e+07
3.36527e+07
3.35172e+07
3.33816e+07
3.32461e+07
3.31105e+07
3.2975e+07
3.28394e+07
3.27039e+07
3.25683e+07
3.24327e+07
3.22972e+07
3.21616e+07
3.2026e+07
3.18904e+07
3.17549e+07
3.16193e+07
3.14838e+07
3.13482e+07
3.12127e+07
3.10771e+07
3.09415e+07
3.08059e+07
3.06703e+07
3.05346e+07
3.03991e+07
3.02635e+07
3.0128e+07
2.99924e+07
2.98568e+07
2.97213e+07
2.95856e+07
2.945e+07
2.93145e+07
2.91789e+07
2.90433e+07
2.89078e+07
2.87723e+07
2.86366e+07
2.8501e+07
2.83654e+07
2.82298e+07
2.80942e+07
2.79586e+07
2.7823e+07
2.76875e+07
2.75519e+07
2.74163e+07
2.72807e+07
2.71451e+07
2.70095e+07
2.68739e+07
2.67383e+07
2.66027e+07
2.64672e+07
2.63317e+07
2.61961e+07
2.60606e+07
2.59251e+07
2.57895e+07
2.56539e+07
2.55184e+07
2.53829e+07
2.52473e+07
2.51118e+07
2.49764e+07
2.48409e+07
2.47053e+07
2.45698e+07
2.44344e+07
2.42989e+07
2.41634e+07
2.40279e+07
2.38925e+07
2.3757e+07
2.36216e+07
2.34861e+07
2.33507e+07
2.32152e+07
2.30798e+07
2.29445e+07
2.28091e+07
2.26737e+07
2.25382e+07
2.24027e+07
2.22672e+07
2.21318e+07
2.19964e+07
2.1861e+07
2.17256e+07
2.15903e+07
2.14549e+07
2.13194e+07
2.11839e+07
2.10485e+07
2.0913e+07
2.07776e+07
2.06423e+07
2.05069e+07
2.03715e+07
2.02362e+07
2.01008e+07
1.99654e+07
1.98299e+07
1.96946e+07
1.95592e+07
1.94238e+07
1.92884e+07
1.91531e+07
1.90177e+07
1.88823e+07
1.8747e+07
1.86117e+07
1.84764e+07
1.83411e+07
1.82059e+07
1.80706e+07
1.79353e+07
1.78e+07
1.76648e+07
1.75296e+07
1.73943e+07
1.72591e+07
1.71238e+07
1.69885e+07
1.68533e+07
1.67181e+07
1.65828e+07
1.64475e+07
1.63124e+07
1.61773e+07
1.60421e+07
1.59069e+07
1.57716e+07
1.56364e+07
1.55011e+07
1.53659e+07
1.52308e+07
1.50957e+07
1.49606e+07
1.48255e+07
1.46903e+07
1.4555e+07
1.44198e+07
1.42848e+07
1.41497e+07
1.40146e+07
1.38795e+07
1.37445e+07
1.36095e+07
1.34744e+07
1.33393e+07
1.32041e+07
1.30691e+07
1.29342e+07
1.27994e+07
1.26645e+07
1.25295e+07
1.23945e+07
1.22596e+07
1.21248e+07
1.19901e+07
1.18554e+07
1.17206e+07
1.15858e+07
1.14511e+07
1.13164e+07
1.11816e+07
1.10471e+07
1.09125e+07
1.07779e+07
1.06432e+07
1.05087e+07
1.03743e+07
1.02399e+07
1.01056e+07
9.97139e+06
9.83703e+06
9.70265e+06
9.56845e+06
9.43439e+06
9.3003e+06
9.16624e+06
9.03235e+06
8.89852e+06
8.7646e+06
8.6307e+06
8.49699e+06
8.36339e+06
8.22989e+06
8.0965e+06
7.9631e+06
7.82964e+06
7.69626e+06
7.56313e+06
7.43023e+06
7.29742e+06
7.16468e+06