/*--------------------------------*- C++ -*----------------------------------*\
| =========                 |                                                 |
| \\      /  F ield         | foam-extend: Open Source CFD                    |
|  \\    /   O peration     | Version:     4.1                                |
|   \\  /    A nd           | Web:         http://www.foam-extend.org         |
|    \\/     M anipulation  |                                                 |
\*---------------------------------------------------------------------------*/
FoamFile
{
    version     2.0;
    format      ascii;
    class       volSymmTensorField;
    location    "1";
    object      sigma;
}
// * * * * * * * * * * * * * * * * * * * * * * * * * * * * * * * * * * * * * //

dimensions      [1 -1 -2 0 0 0 0];

internalField   nonuniform List<symmTensor> 
12500
(
(-1.29041e+08 -1.46703e+07 -2.95016e-07 -1.30124e+07 -1.02708e-07 -4.2616e+07)
(-1.15366e+08 -5.1163e+06 7.82353e-07 -2.73905e+06 2.62774e-07 -3.54314e+07)
(-1.12043e+08 -1.74723e+06 -4.53739e-07 -985812 -2.28448e-07 -3.39085e+07)
(-1.09562e+08 -522719 1.23401e-21 -436437 2.93871e-22 -3.29995e+07)
(-1.09398e+08 2917.31 -5.29155e-07 -407005 -2.25754e-07 -3.29415e+07)
(-1.09366e+08 187456 -5.30374e-07 -403625 -1.45784e-07 -3.29308e+07)
(-1.09773e+08 238417 5.32262e-07 -445625 1.62547e-07 -3.30654e+07)
(-1.10121e+08 223684 1.06779e-06 -474421 3.62632e-07 -3.31787e+07)
(-1.10481e+08 184659 -6.8075e-07 -503922 -1.39866e-07 -3.32955e+07)
(-1.10746e+08 138155 -1.43041e-06 -524619 -4.50425e-07 -3.33812e+07)
(-1.10942e+08 92851 -1.02707e-06 -541383 -3.58174e-07 -3.3445e+07)
(-1.11056e+08 52330.9 -5.3827e-07 -553221 -2.65966e-07 -3.34826e+07)
(-1.11103e+08 17753.1 -1.07697e-06 -562040 -5.76302e-07 -3.34996e+07)
(-1.11091e+08 -10823.2 -4.34015e-21 -568059 -2.61358e-21 -3.34977e+07)
(-1.11031e+08 -33955.5 4.1095e-07 -572224 5.51568e-07 -3.3481e+07)
(-1.10931e+08 -52345.2 -2.07256e-20 -574858 -1.26474e-20 -3.34519e+07)
(-1.10801e+08 -66763.7 -7.54528e-07 -576390 -1.13926e-07 -3.34131e+07)
(-1.10645e+08 -77932.2 -1.33542e-06 -577136 -5.13898e-07 -3.33668e+07)
(-1.10471e+08 -86486.8 3.08446e-07 -577320 -3.08933e-07 -3.33146e+07)
(-1.10282e+08 -92971 1.06893e-06 -577072 8.89703e-07 -3.32578e+07)
(-1.10082e+08 -97837.4 -1.86587e-06 -576481 -2.26355e-07 -3.31977e+07)
(-1.09874e+08 -101449 9.77375e-07 -575718 1.12963e-07 -3.3135e+07)
(-1.0966e+08 -104097 4.11606e-08 -574847 9.10434e-07 -3.30704e+07)
(-1.09441e+08 -106030 -1.60161e-06 -573858 3.08702e-07 -3.30044e+07)
(-1.09219e+08 -107437 -3.27897e-06 -572747 -1.33624e-06 -3.29375e+07)
(-1.08994e+08 -108422 2.00232e-21 -571607 1.94388e-22 -3.28697e+07)
(-1.08768e+08 -109103 -3.06762e-06 -570448 2.64409e-07 -3.28015e+07)
(-1.0854e+08 -109590 -2.48429e-06 -569249 -2.23181e-07 -3.27329e+07)
(-1.08312e+08 -109928 -3.0968e-06 -568032 -8.66445e-07 -3.26641e+07)
(-1.08083e+08 -110139 -2.37726e-06 -566841 -1.4423e-06 -3.2595e+07)
(-1.07854e+08 -110282 1.56808e-06 -565647 2.06218e-06 -3.25259e+07)
(-1.07625e+08 -110386 -3.20716e-06 -564426 1.08636e-06 -3.24567e+07)
(-1.07395e+08 -110445 -3.44087e-06 -563233 -9.51691e-07 -3.23875e+07)
(-1.07165e+08 -110478 -3.00706e-06 -562062 -2.20353e-07 -3.23182e+07)
(-1.06936e+08 -110502 -5.67678e-06 -560818 -1.87812e-06 -3.22489e+07)
(-1.06706e+08 -110512 -1.03426e-06 -559546 -1.59144e-06 -3.21796e+07)
(-1.06476e+08 -110510 0 -558334 0 -3.21103e+07)
(-1.06246e+08 -110507 1.0298e-06 -557138 1.67745e-06 -3.2041e+07)
(-1.06016e+08 -110503 -2.40997e-06 -555932 1.50232e-06 -3.19717e+07)
(-1.05787e+08 -110503 -2.27422e-06 -554751 -9.90298e-07 -3.19024e+07)
(-1.05557e+08 -110509 -2.31578e-06 -553568 -1.0114e-06 -3.18332e+07)
(-1.05327e+08 -110518 -1.0209e-06 -552347 -1.84834e-06 -3.17639e+07)
(-1.05097e+08 -110530 5.15856e-06 -551121 -6.21264e-07 -3.16946e+07)
(-1.04868e+08 -110534 1.52466e-06 -549912 2.89985e-06 -3.16253e+07)
(-1.04638e+08 -110532 -2.42668e-06 -548690 2.74815e-06 -3.1556e+07)
(-1.04408e+08 -110537 -7.06064e-06 -547462 -2.33978e-06 -3.14867e+07)
(-1.04179e+08 -110543 5.43692e-07 -546274 -2.9827e-06 -3.14174e+07)
(-1.03949e+08 -110546 1.00754e-06 -545133 2.1019e-06 -3.13482e+07)
(-1.03719e+08 -110557 -1.13699e-06 -543963 2.0372e-06 -3.12789e+07)
(-1.03489e+08 -110572 -5.37136e-06 -542720 -2.39847e-06 -3.12096e+07)
(-1.0326e+08 -110572 3.45092e-06 -541476 -2.0151e-06 -3.11403e+07)
(-1.0303e+08 -110568 4.99315e-07 -540260 1.13454e-06 -3.1071e+07)
(-1.028e+08 -110574 -4.12001e-06 -539035 9.43943e-07 -3.10018e+07)
(-1.02571e+08 -110582 -4.70115e-06 -537825 -2.10906e-07 -3.09325e+07)
(-1.02341e+08 -110588 -1.89598e-06 -536668 1.09153e-06 -3.08633e+07)
(-1.02111e+08 -110603 -5.36134e-06 -535510 -1.42735e-06 -3.07941e+07)
(-1.01882e+08 -110626 -9.87501e-07 -534317 -2.47597e-06 -3.07248e+07)
(-1.01652e+08 -110644 0 -533130 0 -3.06556e+07)
(-1.01422e+08 -110656 9.83048e-07 -531944 2.55808e-06 -3.05863e+07)
(-1.01193e+08 -110666 -6.81153e-06 -530709 2.28688e-06 -3.0517e+07)
(-1.00963e+08 -110675 -6.25515e-06 -529460 -2.84741e-06 -3.04478e+07)
(-1.00733e+08 -110676 2.25257e-20 -528263 5.55529e-20 -3.03785e+07)
(-1.00504e+08 -110676 -4.46513e-06 -527098 2.51452e-06 -3.03092e+07)
(-1.00274e+08 -110682 -9.25246e-06 -525908 -3.071e-06 -3.024e+07)
(-1.00044e+08 -110690 -4.84845e-07 -524690 -1.40109e-06 -3.01707e+07)
(-9.98146e+07 -110691 -5.19825e-06 -523473 1.21603e-06 -3.01014e+07)
(-9.95849e+07 -110691 -5.27989e-06 -522257 1.23663e-06 -3.00321e+07)
(-9.93552e+07 -110692 -9.24579e-06 -521040 -1.76792e-06 -2.99629e+07)
(-9.91255e+07 -110686 -9.60785e-07 -519833 -2.96305e-06 -2.98936e+07)
(-9.88958e+07 -110675 3.00149e-06 -518633 1.01675e-07 -2.98243e+07)
(-9.86661e+07 -110670 0 -517420 0 -2.97551e+07)
(-9.84364e+07 -110667 0 -516218 0 -2.96858e+07)
(-9.82066e+07 -110662 4.07278e-06 -515045 3.2234e-06 -2.96165e+07)
(-9.79769e+07 -110662 -3.16051e-06 -513857 -1.0073e-07 -2.95472e+07)
(-9.77472e+07 -110668 5.45265e-06 -512626 -3.00059e-06 -2.9478e+07)
(-9.75175e+07 -110672 9.452e-07 -511396 3.241e-06 -2.94087e+07)
(-9.72877e+07 -110674 -2.80732e-06 -510187 1.54015e-06 -2.93394e+07)
(-9.7058e+07 -110682 -3.31805e-06 -508972 -9.97853e-08 -2.92701e+07)
(-9.68283e+07 -110692 -1.05409e-05 -507755 -1.97802e-06 -2.92008e+07)
(-9.65986e+07 -110698 3.39626e-06 -506549 9.93129e-08 -2.91315e+07)
(-9.63689e+07 -110707 -2.50116e-06 -505338 3.33769e-06 -2.90623e+07)
(-9.61392e+07 -110723 -8.34595e-06 -504126 -5.41113e-06 -2.8993e+07)
(-9.59095e+07 -110737 9.60901e-06 -502943 -3.2186e-06 -2.89237e+07)
(-9.56799e+07 -110746 4.01526e-06 -501767 1.87492e-06 -2.88545e+07)
(-9.54503e+07 -110757 3.59016e-06 -500549 9.81324e-08 -2.87852e+07)
(-9.52206e+07 -110769 -3.62866e-06 -499312 -9.78964e-08 -2.8716e+07)
(-9.4991e+07 -110775 3.66707e-06 -498109 9.76603e-08 -2.86467e+07)
(-9.47614e+07 -110781 7.87001e-06 -496920 2.04831e-06 -2.85775e+07)
(-9.45318e+07 -110794 -3.74361e-06 -495707 -9.71882e-08 -2.85083e+07)
(-9.43022e+07 -110807 3.32472e-06 -494496 -1.79469e-06 -2.8439e+07)
(-9.40726e+07 -110815 7.63956e-06 -493312 1.93432e-07 -2.83698e+07)
(-9.3843e+07 -110826 7.71545e-06 -492120 1.9296e-07 -2.83005e+07)
(-9.36134e+07 -110841 4.80294e-06 -490906 3.99337e-06 -2.82313e+07)
(-9.33837e+07 -110847 -7.86668e-06 -489698 -1.92016e-07 -2.8162e+07)
(-9.31541e+07 -110847 7.0391e-06 -488493 -3.78101e-06 -2.80928e+07)
(-9.29245e+07 -110850 8.01716e-06 -487264 1.91071e-07 -2.80235e+07)
(-9.26949e+07 -110855 4.04606e-06 -486048 9.52997e-08 -2.79543e+07)
(-9.24653e+07 -110856 4.08345e-06 -484880 9.50635e-08 -2.7885e+07)
(-9.22357e+07 -110858 8.2415e-06 -483709 1.89655e-07 -2.78158e+07)
(-9.20061e+07 -110867 4.15795e-06 -482495 9.45915e-08 -2.77466e+07)
(-9.17766e+07 -110871 8.39013e-06 -481280 1.88711e-07 -2.76774e+07)
(-9.1547e+07 -110869 0 -480090 0 -2.76081e+07)
(-9.13175e+07 -110870 5.59667e-06 -478886 6.49971e-06 -2.75389e+07)
(-9.10879e+07 -110876 -1.24761e-05 -477658 1.87275e-06 -2.74697e+07)
(-9.08584e+07 -110879 -9.56582e-06 -476445 -4.53095e-06 -2.74005e+07)
(-9.06289e+07 -110883 -4.39216e-07 -475254 -2.19039e-06 -2.73312e+07)
(-9.03994e+07 -110893 3.75155e-20 -474071 1.84325e-19 -2.7262e+07)
(-9.01698e+07 -110903 -7.16878e-20 -472899 -3.08805e-19 -2.71928e+07)
(-8.99403e+07 -110907 -4.35878e-07 -471725 -2.24508e-06 -2.71236e+07)
(-8.97107e+07 -110911 5.39443e-06 -470514 4.61867e-06 -2.70544e+07)
(-8.94812e+07 -110916 -8.25485e-06 -469276 4.37863e-06 -2.69851e+07)
(-8.92516e+07 -110916 -1.3359e-05 -468058 2.02408e-06 -2.69159e+07)
(-8.9022e+07 -110915 -1.38995e-05 -466860 -2.7457e-07 -2.68467e+07)
(-8.87925e+07 -110917 -1.52982e-05 -465655 -7.27979e-06 -2.67774e+07)
(-8.85629e+07 -110920 8.98058e-06 -464454 -2.17111e-06 -2.67082e+07)
(-8.83333e+07 -110921 8.56181e-07 -463277 4.74216e-06 -2.6639e+07)
(-8.81037e+07 -110926 -1.47557e-05 -462093 -2.66063e-06 -2.65697e+07)
(-8.78741e+07 -110935 -4.25865e-07 -460882 -2.40666e-06 -2.65005e+07)
(-8.76445e+07 -110937 -8.84493e-06 -459661 4.66855e-06 -2.64312e+07)
(-8.74149e+07 -110932 -1.01888e-05 -458432 -2.6218e-06 -2.6362e+07)
(-8.71853e+07 -110929 -8.45054e-07 -457193 -4.91937e-06 -2.62928e+07)
(-8.69558e+07 -110928 0 -455983 0 -2.62235e+07)
(-8.67262e+07 -110925 8.40604e-07 -454815 4.98961e-06 -2.61543e+07)
(-8.64967e+07 -110929 -1.00461e-05 -453634 -1.77854e-07 -2.60851e+07)
(-8.62671e+07 -110940 3.80369e-06 -452416 -7.50052e-06 -2.60159e+07)
(-8.60375e+07 -110949 1.10194e-05 -451204 5.27118e-06 -2.59466e+07)
(-8.58079e+07 -110952 -1.45506e-05 -450009 4.86431e-06 -2.58774e+07)
(-8.55784e+07 -110956 -1.07388e-05 -448783 -2.75775e-06 -2.58081e+07)
(-8.53488e+07 -110961 -6.0238e-06 -447531 -5.28584e-06 -2.57389e+07)
(-8.51192e+07 -110958 1.00494e-05 -446308 -2.44123e-06 -2.56696e+07)
(-8.48896e+07 -110955 1.2342e-06 -445119 7.90027e-06 -2.56004e+07)
(-8.466e+07 -110961 -9.77849e-06 -443933 5.127e-06 -2.55312e+07)
(-8.44304e+07 -110970 -1.6001e-05 -442755 -2.60408e-07 -2.54619e+07)
(-8.42008e+07 -110973 -1.61032e-05 -441578 -2.597e-07 -2.53927e+07)
(-8.39712e+07 -110977 -1.74259e-05 -440361 -8.36385e-06 -2.53235e+07)
(-8.37416e+07 -110984 1.04653e-05 -439109 -2.54636e-06 -2.52542e+07)
(-8.35119e+07 -110983 -4.25516e-06 -437885 8.12046e-06 -2.51849e+07)
(-8.32823e+07 -110977 -1.06024e-05 -436695 2.58103e-06 -2.51157e+07)
(-8.30527e+07 -110973 -1.14757e-05 -435493 -2.93985e-06 -2.50464e+07)
(-8.2823e+07 -110972 -1.15416e-05 -434284 -2.95612e-06 -2.49772e+07)
(-8.25934e+07 -110969 -1.08067e-05 -433103 2.63269e-06 -2.49079e+07)
(-8.23637e+07 -110966 -1.16728e-05 -431926 -2.98853e-06 -2.48387e+07)
(-8.21341e+07 -110968 -3.98047e-07 -430712 -2.83579e-06 -2.47694e+07)
(-8.19044e+07 -110965 -1.06124e-05 -429476 5.53628e-06 -2.47002e+07)
(-8.16748e+07 -110953 -1.10765e-05 -428246 2.70092e-06 -2.46309e+07)
(-8.14452e+07 -110942 -1.23277e-05 -427028 -5.93813e-06 -2.45617e+07)
(-8.12156e+07 -110935 5.80197e-06 -425830 8.34979e-08 -2.44924e+07)
(-8.0986e+07 -110927 -1.08845e-05 -424656 5.66974e-06 -2.44232e+07)
(-8.07565e+07 -110921 -1.17348e-05 -423475 -1.66052e-07 -2.4354e+07)
(-8.05269e+07 -110919 -1.80901e-05 -422266 -3.19912e-06 -2.42848e+07)
(-8.02974e+07 -110917 -5.93242e-06 -421060 -8.25538e-08 -2.42155e+07)
(-8.00678e+07 -110912 -1.23176e-05 -419871 -3.14781e-06 -2.41463e+07)
(-7.98382e+07 -110911 6.44861e-20 -418666 4.99882e-19 -2.40771e+07)
(-7.96087e+07 -110913 -1.1287e-05 -417442 5.86715e-06 -2.40078e+07)
(-7.9379e+07 -110912 -1.25075e-05 -416231 -3.19469e-06 -2.39386e+07)
(-7.91494e+07 -110912 -6.09341e-06 -415039 -8.13735e-08 -2.38693e+07)
(-7.89197e+07 -110916 -1.87585e-05 -413848 -3.30685e-06 -2.38001e+07)
(-7.86899e+07 -110919 -3.81356e-07 -412660 -3.07935e-06 -2.37308e+07)
(-7.84602e+07 -110918 -1.16173e-05 -411464 6.02911e-06 -2.36615e+07)
(-7.82305e+07 -110918 -1.28202e-05 -410230 -3.2719e-06 -2.35922e+07)
(-7.80008e+07 -110919 5.49605e-06 -408983 -6.17343e-06 -2.35229e+07)
(-7.77712e+07 -110915 7.03734e-06 -407772 6.36504e-06 -2.34537e+07)
(-7.75415e+07 -110908 -1.2254e-05 -406577 2.99878e-06 -2.33844e+07)
(-7.73119e+07 -110904 -6.72084e-06 -405356 -3.25334e-06 -2.33152e+07)
(-7.70822e+07 -110902 -1.27547e-05 -404137 -1.58497e-07 -2.32459e+07)
(-7.68526e+07 -110895 -1.24444e-05 -402960 3.04696e-06 -2.31767e+07)
(-7.66231e+07 -110891 -1.32502e-05 -401788 -3.37803e-06 -2.31075e+07)
(-7.63935e+07 -110893 6.47031e-06 -400580 7.85403e-08 -2.30382e+07)
(-7.6164e+07 -110892 -1.26331e-05 -399365 3.09472e-06 -2.2969e+07)
(-7.59345e+07 -110886 -7.26784e-06 -398167 -6.61145e-06 -2.28998e+07)
(-7.57049e+07 -110884 5.01336e-20 -396963 4.54825e-19 -2.28306e+07)
(-7.54753e+07 -110888 7.31554e-07 -395758 6.59453e-06 -2.27613e+07)
(-7.52457e+07 -110888 -1.32468e-05 -394577 -1.5472e-07 -2.26921e+07)
(-7.50161e+07 -110884 -1.09065e-06 -393396 -9.98296e-06 -2.26228e+07)
(-7.47865e+07 -110886 6.68401e-06 -392185 7.6888e-08 -2.25536e+07)
(-7.45568e+07 -110887 -5.99152e-06 -390978 6.63906e-06 -2.24843e+07)
(-7.43272e+07 -110883 -7.46466e-06 -389800 -6.8222e-06 -2.24151e+07)
(-7.40975e+07 -110881 1.39075e-05 -388605 3.54023e-06 -2.23458e+07)
(-7.38679e+07 -110883 -1.93383e-05 -387369 9.98061e-06 -2.22766e+07)
(-7.36383e+07 -110883 -1.40246e-05 -386139 -3.56912e-06 -2.22073e+07)
(-7.34086e+07 -110879 -1.40829e-05 -384949 -3.5835e-06 -2.21381e+07)
(-7.31789e+07 -110879 -6.89317e-06 -383770 -7.52351e-08 -2.20688e+07)
(-7.29492e+07 -110882 -1.34918e-05 -382582 3.31211e-06 -2.19995e+07)
(-7.27195e+07 -110881 -2.12087e-05 -381385 -3.70111e-06 -2.19303e+07)
(-7.24899e+07 -110878 -7.02616e-07 -380174 -6.98296e-06 -2.1861e+07)
(-7.22602e+07 -110877 7.01064e-06 -378952 7.42907e-08 -2.17917e+07)
(-7.20305e+07 -110875 0 -377737 0 -2.17225e+07)
(-7.18008e+07 -110872 3.47969e-07 -376527 3.53518e-06 -2.16532e+07)
(-7.15711e+07 -110871 -1.35018e-05 -375301 6.95215e-06 -2.15839e+07)
(-7.13415e+07 -110873 -1.49447e-05 -374082 -7.27487e-06 -2.15147e+07)
(-7.11118e+07 -110875 6.81077e-06 -372898 -3.50536e-06 -2.14454e+07)
(-7.08821e+07 -110877 -1.33376e-05 -371722 1.06327e-05 -2.13761e+07)
(-7.06524e+07 -110882 -1.40829e-05 -370524 3.46182e-06 -2.13069e+07)
(-7.04228e+07 -110882 -1.48236e-05 -369312 -3.76614e-06 -2.12376e+07)
(-7.01932e+07 -110877 -7.26953e-06 -368098 -7.21657e-08 -2.11684e+07)
(-6.99636e+07 -110874 -1.42566e-05 -366872 3.50583e-06 -2.10991e+07)
(-6.97339e+07 -110875 -2.23161e-05 -365655 -3.87887e-06 -2.10299e+07)
(-6.95043e+07 -110875 -8.02784e-06 -364464 -7.42716e-06 -2.09606e+07)
(-6.92747e+07 -110879 7.38218e-06 -363270 7.12214e-08 -2.08914e+07)
(-6.9045e+07 -110892 -7.41011e-06 -362057 -7.09853e-08 -2.08221e+07)
(-6.88154e+07 -110908 -7.77145e-06 -360862 -3.7905e-06 -2.07529e+07)
(-6.85857e+07 -110919 3.32388e-07 -359685 3.73362e-06 -2.06836e+07)
(-6.83561e+07 -110930 -7.49335e-06 -358463 -7.0277e-08 -2.06144e+07)
(-6.81265e+07 -110940 -7.85107e-06 -357194 -3.83127e-06 -2.05451e+07)
(-6.7897e+07 -110940 6.581e-07 -355954 7.54992e-06 -2.04759e+07)
(-6.76674e+07 -110935 -1.44956e-05 -354762 7.43816e-06 -2.04067e+07)
(-6.74379e+07 -110937 -1.58597e-05 -353572 -7.74324e-06 -2.03374e+07)
(-6.72084e+07 -110945 7.63022e-06 -352376 6.90971e-08 -2.02682e+07)
(-6.69788e+07 -110951 -2.26473e-05 -351193 3.62285e-06 -2.0199e+07)
(-6.67493e+07 -110959 -1.56921e-05 -349998 -3.98018e-06 -2.01298e+07)
(-6.65198e+07 -110970 -1.57448e-05 -348771 -3.99317e-06 -2.00606e+07)
(-6.62902e+07 -110972 7.73805e-06 -347546 6.81532e-08 -1.99913e+07)
(-6.60606e+07 -110959 -1.55295e-05 -346338 -1.35834e-07 -1.99221e+07)
(-6.58311e+07 -110941 7.15333e-06 -345114 -7.72527e-06 -1.98529e+07)
(-6.56016e+07 -110926 6.35852e-07 -343888 7.81949e-06 -1.97837e+07)
(-6.53722e+07 -110911 -1.5372e-05 -342711 3.78855e-06 -1.97145e+07)
(-6.51427e+07 -110900 -6.31404e-07 -341568 -7.8723e-06 -1.96453e+07)
(-6.49133e+07 -110900 0 -340394 0 -1.95761e+07)
(-6.46838e+07 -110902 0 -339183 0 -1.95069e+07)
(-6.44542e+07 -110895 7.94926e-06 -337970 6.62655e-08 -1.94377e+07)
(-6.42246e+07 -110882 3.11252e-07 -336756 3.98839e-06 -1.93684e+07)
(-6.3995e+07 -110867 -1.5382e-05 -335531 7.87109e-06 -1.92992e+07)
(-6.37654e+07 -110848 -2.43898e-05 -334310 -4.21091e-06 -1.92299e+07)
(-6.35359e+07 -110829 -6.15829e-07 -333106 -8.05418e-06 -1.91607e+07)
(-6.33064e+07 -110820 0 -331919 0 -1.90915e+07)
(-6.30768e+07 -110821 0 -330752 0 -1.90223e+07)
(-6.28473e+07 -110826 0 -329588 0 -1.89531e+07)
(-6.26178e+07 -110833 8.15454e-06 -328383 6.43773e-08 -1.88838e+07)
(-6.23882e+07 -110838 0 -327141 0 -1.88146e+07)
(-6.21586e+07 -110833 0 -325912 0 -1.87454e+07)
(-6.1929e+07 -110822 -7.62974e-06 -324713 8.16786e-06 -1.86761e+07)
(-6.16994e+07 -110816 -7.65692e-06 -323520 8.19306e-06 -1.86069e+07)
(-6.14698e+07 -110814 -2.57332e-05 -322332 -1.26116e-05 -1.85376e+07)
(-6.12402e+07 -110815 7.71103e-06 -321153 -8.24319e-06 -1.84684e+07)
(-6.10106e+07 -110822 5.91353e-07 -319958 8.33083e-06 -1.83992e+07)
(-6.0781e+07 -110835 -8.05932e-06 -318744 4.11522e-06 -1.83299e+07)
(-6.05514e+07 -110840 -2.93451e-07 -317538 -4.18996e-06 -1.82607e+07)
(-6.03218e+07 -110834 6.7641e-20 -316330 9.33029e-19 -1.81914e+07)
(-6.00922e+07 -110827 -1.68542e-05 -315092 -1.23562e-07 -1.81222e+07)
(-5.98626e+07 -110822 -2.90113e-07 -313861 -4.22644e-06 -1.8053e+07)
(-5.96331e+07 -110815 8.47546e-06 -312691 6.13087e-08 -1.79837e+07)
(-5.94036e+07 -110814 -2.87888e-07 -311537 -4.25052e-06 -1.79145e+07)
(-5.91741e+07 -110824 1.73337e-05 -310336 4.38417e-06 -1.78453e+07)
(-5.89445e+07 -110834 -8.26163e-06 -309115 4.21382e-06 -1.77761e+07)
(-5.8715e+07 -110838 2.84551e-07 -307919 4.2863e-06 -1.77069e+07)
(-5.84854e+07 -110844 -1.6906e-05 -306713 4.17787e-06 -1.76376e+07)
(-5.82558e+07 -110853 -9.46527e-06 -305477 -1.29896e-05 -1.75684e+07)
(-5.80262e+07 -110856 8.92299e-06 -304255 4.38132e-06 -1.74991e+07)
(-5.77967e+07 -110854 -1.70502e-05 -303065 4.21451e-06 -1.74299e+07)
(-5.75671e+07 -110860 -2.78988e-07 -301877 -4.345e-06 -1.73607e+07)
(-5.73375e+07 -110875 -1.71454e-05 -300692 4.23871e-06 -1.72915e+07)
(-5.71079e+07 -110886 -9.01153e-06 -299524 -4.42687e-06 -1.72222e+07)
(-5.68782e+07 -110897 5.51299e-07 -298329 8.75933e-06 -1.7153e+07)
(-5.66486e+07 -110912 -2.63421e-05 -297079 -1.74721e-07 -1.70837e+07)
(-5.64189e+07 -110924 -5.46847e-07 -295827 -8.80509e-06 -1.70144e+07)
(-5.61892e+07 -110928 -8.55398e-06 -294624 4.35615e-06 -1.69451e+07)
(-5.59595e+07 -110932 -1.76979e-05 -293440 -1.15064e-07 -1.68759e+07)
(-5.57299e+07 -110940 -8.6014e-06 -292239 4.37922e-06 -1.68066e+07)
(-5.55004e+07 -110945 -1.77879e-05 -291039 -1.1412e-07 -1.67374e+07)
(-5.52709e+07 -110947 -9.18417e-06 -289856 -4.51575e-06 -1.66682e+07)
(-5.50414e+07 -110952 -8.93859e-06 -288673 -5.65879e-08 -1.6599e+07)
(-5.4812e+07 -110957 -1.79215e-05 -287478 -1.12704e-07 -1.65298e+07)
(-5.45826e+07 -110960 -8.98286e-06 -286268 -5.61162e-08 -1.64607e+07)
(-5.43531e+07 -110967 -1.80097e-05 -285047 -1.11761e-07 -1.63915e+07)
(-5.41236e+07 -110979 -1.83158e-05 -283842 -4.62544e-06 -1.63222e+07)
(-5.3894e+07 -110994 4.74252e-20 -282672 7.53679e-19 -1.6253e+07)
(-5.36643e+07 -111009 -1.76204e-05 -281501 8.9615e-06 -1.61838e+07)
(-5.34347e+07 -111024 -1.79249e-05 -280296 4.43686e-06 -1.61145e+07)
(-5.32049e+07 -111030 -2.78561e-05 -279075 -9.27911e-06 -1.60452e+07)
(-5.29752e+07 -111026 -2.56734e-07 -277858 -4.56822e-06 -1.59759e+07)
(-5.27455e+07 -111023 -1.78013e-05 -276622 9.04934e-06 -1.59066e+07)
(-5.25158e+07 -111025 -1.86095e-05 -275376 -4.69751e-06 -1.58374e+07)
(-5.22861e+07 -111027 -9.45206e-06 -274160 -4.65386e-06 -1.57681e+07)
(-5.20565e+07 -111031 -8.71517e-06 -272971 9.16777e-06 -1.56988e+07)
(-5.18268e+07 -111045 -1.87326e-05 -271784 -4.7277e-06 -1.56296e+07)
(-5.1597e+07 -111058 1.19073e-19 -270614 2.05675e-18 -1.55603e+07)
(-5.13672e+07 -111060 -1.83158e-05 -269450 4.53635e-06 -1.5491e+07)
(-5.11375e+07 -111055 -9.79875e-06 -268232 -9.35721e-06 -1.54217e+07)
(-5.09078e+07 -111049 -9.61599e-21 -266956 -2.58126e-19 -1.53524e+07)
(-5.06781e+07 -111039 -9.09861e-06 -265712 4.62078e-06 -1.52831e+07)
(-5.04484e+07 -111028 -1.84848e-05 -264529 4.57936e-06 -1.52139e+07)
(-5.02187e+07 -111032 -2.79115e-05 -263335 4.53836e-06 -1.51446e+07)
(-4.9989e+07 -111049 -1.90527e-05 -262115 -4.80616e-06 -1.50753e+07)
(-4.97592e+07 -111065 -9.66648e-06 -260921 -4.7646e-06 -1.5006e+07)
(-4.95295e+07 -111080 -9.20535e-06 -259748 4.67255e-06 -1.49368e+07)
(-4.92998e+07 -111097 -2.8396e-05 -258538 -1.52055e-07 -1.48675e+07)
(-4.90701e+07 -111105 -9.48521e-06 -257299 -5.04491e-08 -1.47982e+07)
(-4.88405e+07 -111095 -1.87733e-05 -256073 4.65284e-06 -1.4729e+07)
(-4.86109e+07 -111081 -1.92849e-05 -254853 -4.86306e-06 -1.46597e+07)
(-4.83813e+07 -111077 -9.54424e-06 -253636 -4.97409e-08 -1.45905e+07)
(-4.81517e+07 -111077 -1.93608e-05 -252464 -4.88165e-06 -1.45213e+07)
(-4.79221e+07 -111079 -1.22614e-19 -251332 -2.65872e-18 -1.4452e+07)
(-4.76924e+07 -111086 -1.89738e-05 -250171 4.70393e-06 -1.43828e+07)
(-4.74626e+07 -111095 -9.62166e-06 -248959 -4.87961e-08 -1.43135e+07)
(-4.72327e+07 -111094 -1.90527e-05 -247741 4.72405e-06 -1.42441e+07)
(-4.70028e+07 -111084 -1.95474e-05 -246521 -4.92733e-06 -1.41748e+07)
(-4.6773e+07 -111072 -9.90543e-06 -245274 -4.88824e-06 -1.41055e+07)
(-4.65431e+07 -111061 -9.47203e-06 -244018 4.80172e-06 -1.40361e+07)
(-4.63133e+07 -111049 -2.89246e-05 -242794 4.7161e-06 -1.39668e+07)
(-4.60835e+07 -111043 -1.96933e-05 -241611 -4.96303e-06 -1.38975e+07)
(-4.58538e+07 -111043 -9.97579e-06 -240451 -4.9247e-06 -1.38283e+07)
(-4.5624e+07 -111045 -9.55093e-06 -239276 4.83989e-06 -1.3759e+07)
(-4.53942e+07 -111046 -1.95808e-05 -238058 -9.33394e-08 -1.36897e+07)
(-4.51645e+07 -111045 -1.00276e-05 -236813 -4.95156e-06 -1.36204e+07)
(-4.49347e+07 -111037 -9.8269e-06 -235592 -4.61974e-08 -1.35511e+07)
(-4.47049e+07 -111024 -9.845e-06 -234394 -4.59611e-08 -1.34818e+07)
(-4.44751e+07 -111015 -9.64747e-06 -233182 4.88655e-06 -1.34125e+07)
(-4.42454e+07 -111011 -1.95474e-05 -231967 4.85026e-06 -1.33432e+07)
(-4.40156e+07 -111009 -2.00108e-05 -230783 -5.04065e-06 -1.32739e+07)
(-4.37858e+07 -111017 -9.91647e-06 -229608 -4.50162e-08 -1.32046e+07)
(-4.35561e+07 -111036 -2.95912e-05 -228408 4.83349e-06 -1.31354e+07)
(-4.33264e+07 -111056 -9.95165e-06 -227200 -4.45439e-08 -1.30661e+07)
(-4.30967e+07 -111067 -2.99073e-05 -225993 -1.32923e-07 -1.29968e+07)
(-4.28669e+07 -111079 -1.99729e-05 -224758 -8.81431e-08 -1.29275e+07)
(-4.26372e+07 -111094 -3.00112e-05 -223522 -1.31506e-07 -1.28582e+07)
(-4.24074e+07 -111102 -2.02473e-05 -222340 -5.09842e-06 -1.27889e+07)
(-4.21776e+07 -111107 -2.02804e-05 -221177 -5.10649e-06 -1.27196e+07)
(-4.19479e+07 -111120 -9.85168e-06 -219963 4.98513e-06 -1.26504e+07)
(-4.17182e+07 -111133 -1.99415e-05 -218734 4.95093e-06 -1.25811e+07)
(-4.14886e+07 -111139 -2.03784e-05 -217556 -5.13042e-06 -1.25118e+07)
(-4.1259e+07 -111147 -2.04107e-05 -216379 -5.1383e-06 -1.24426e+07)
(-4.10294e+07 -111164 -2.00451e-05 -215143 4.97741e-06 -1.23734e+07)
(-4.07999e+07 -111177 -2.0277e-05 -213902 -8.38928e-08 -1.23041e+07)
(-4.05703e+07 -111181 -1.05482e-05 -212723 -1.01982e-05 -1.22349e+07)
(-4.03408e+07 -111187 -1.95317e-20 -211565 -5.65528e-19 -1.21657e+07)
(-4.01112e+07 -111202 -9.99314e-06 -210385 5.0533e-06 -1.20965e+07)
(-3.98816e+07 -111211 -1.02037e-05 -209201 -4.10021e-08 -1.20272e+07)
(-3.96519e+07 -111215 -1.02197e-05 -208013 -4.0766e-08 -1.1958e+07)
(-3.94223e+07 -111225 -2.06625e-05 -206787 -5.19969e-06 -1.18887e+07)
(-3.91927e+07 -111237 -3.88164e-20 -205552 -1.13766e-18 -1.18195e+07)
(-3.8963e+07 -111238 -2.01571e-05 -204353 1.01888e-05 -1.17502e+07)
(-3.87334e+07 -111229 -3.10369e-05 -203163 -5.26177e-06 -1.1681e+07)
(-3.85038e+07 -111220 -1.86601e-07 -201944 -5.1501e-06 -1.16117e+07)
(-3.82741e+07 -111208 -9.94318e-06 -200727 1.02764e-05 -1.15425e+07)
(-3.80446e+07 -111194 -2.08435e-05 -199550 -5.24379e-06 -1.14732e+07)
(-3.7815e+07 -111186 4.48638e-21 -198391 1.68603e-23 -1.1404e+07)
(-3.75855e+07 -111190 -2.03559e-05 -197214 1.02844e-05 -1.13348e+07)
(-3.73559e+07 -111201 -2.11126e-05 -196011 -1.04536e-05 -1.12656e+07)
(-3.71262e+07 -111213 -1.79925e-07 -194791 -5.19592e-06 -1.11963e+07)
(-3.68964e+07 -111220 -1.00476e-05 -193568 1.03689e-05 -1.1127e+07)
(-3.66666e+07 -111215 -3.10826e-05 -192353 5.09773e-06 -1.10577e+07)
(-3.64368e+07 -111201 -2.08697e-05 -191128 -7.4921e-08 -1.09884e+07)
(-3.62071e+07 -111190 -2.0899e-05 -189896 -7.44488e-08 -1.09191e+07)
(-3.59775e+07 -111189 -2.09282e-05 -188705 -7.39766e-08 -1.08499e+07)
(-3.57479e+07 -111196 -2.11304e-05 -187558 -5.31357e-06 -1.07806e+07)
(-3.55183e+07 -111216 -1.0493e-05 -186380 -3.65161e-08 -1.07114e+07)
(-3.52886e+07 -111243 -2.10145e-05 -185136 -7.256e-08 -1.06421e+07)
(-3.50588e+07 -111258 -2.13828e-05 -183887 -1.05951e-05 -1.05728e+07)
(-3.48289e+07 -111259 -1.07044e-05 -182666 -5.30438e-06 -1.05035e+07)
(-3.45989e+07 -111258 3.35354e-07 -181445 1.05512e-05 -1.04341e+07)
(-3.4369e+07 -111254 -2.09605e-05 -180234 5.21188e-06 -1.03648e+07)
(-3.41391e+07 -111241 -2.13202e-05 -179052 -5.35966e-06 -1.02954e+07)
(-3.39093e+07 -111231 -2.11822e-05 -177847 -6.97245e-08 -1.02262e+07)
(-3.36796e+07 -111236 -1.06048e-05 -176589 -3.46261e-08 -1.01569e+07)
(-3.34499e+07 -111245 -1.06183e-05 -175349 -3.439e-08 -1.00876e+07)
(-3.32202e+07 -111247 -1.06318e-05 -174163 -3.41539e-08 -1.00183e+07)
(-3.29906e+07 -111254 -1.06451e-05 -172952 -3.39177e-08 -9.94907e+06)
(-3.2761e+07 -111270 -1.06584e-05 -171699 -3.36817e-08 -9.87982e+06)
(-3.25314e+07 -111281 -1.06716e-05 -170504 -3.34456e-08 -9.81056e+06)
(-3.23017e+07 -111288 -2.15259e-05 -169386 -5.40955e-06 -9.74133e+06)
(-3.2072e+07 -111305 4.66308e-20 -168231 1.48519e-18 -9.67208e+06)
(-3.18423e+07 -111326 -1.05563e-05 -166996 5.32334e-06 -9.60279e+06)
(-3.16125e+07 -111330 -1.08766e-05 -165750 -5.39499e-06 -9.53348e+06)
(-3.13827e+07 -111324 3.60795e-20 -164517 1.19144e-18 -9.46417e+06)
(-3.11529e+07 -111326 -2.13466e-05 -163270 5.3111e-06 -9.39486e+06)
(-3.09231e+07 -111334 -1.09112e-05 -162040 -5.41322e-06 -9.32555e+06)
(-3.06933e+07 -111339 -1.48749e-07 -160865 -5.38765e-06 -9.25625e+06)
(-3.04635e+07 -111350 1.47635e-07 -159697 5.39383e-06 -9.18695e+06)
(-3.02336e+07 -111372 -2.14502e-05 -158491 5.33779e-06 -9.11764e+06)
(-3.00039e+07 -111389 -1.08105e-05 -157278 -3.08472e-08 -9.04834e+06)
(-2.97742e+07 -111389 -1.08226e-05 -156075 -3.06111e-08 -8.97908e+06)
(-2.95446e+07 -111382 -1.08346e-05 -154856 -3.0375e-08 -8.90984e+06)
(-2.93151e+07 -111373 -1.08464e-05 -153626 -3.0139e-08 -8.84061e+06)
(-2.90855e+07 -111361 -4.03382e-20 -152431 -6.02908e-19 -8.77138e+06)
(-2.88559e+07 -111352 -1.08699e-05 -151276 -2.96667e-08 -8.70215e+06)
(-2.86263e+07 -111347 -1.08815e-05 -150128 -2.94306e-08 -8.63292e+06)
(-2.83967e+07 -111344 -1.08931e-05 -148960 -2.91945e-08 -8.56369e+06)
(-2.81671e+07 -111344 -1.0768e-05 -147761 5.42406e-06 -8.49444e+06)
(-2.79374e+07 -111347 -2.18316e-05 -146549 -5.74447e-08 -8.42519e+06)
(-2.77077e+07 -111347 -2.19884e-05 -145351 -5.52128e-06 -8.35593e+06)
(-2.7478e+07 -111338 -2.18764e-05 -144150 -5.65001e-08 -8.28666e+06)
(-2.72483e+07 -111322 -2.18985e-05 -142904 -5.60279e-08 -8.21737e+06)
(-2.70186e+07 -111303 -2.20514e-05 -141654 -5.53644e-06 -8.14806e+06)
(-2.67888e+07 -111278 -1.09711e-05 -140474 -2.75414e-08 -8.07878e+06)
(-2.6559e+07 -111259 -2.19637e-05 -139340 -5.46102e-08 -8.00952e+06)
(-2.63293e+07 -111259 -8.27095e-21 -138172 -3.04974e-19 -7.94025e+06)
(-2.60995e+07 -111267 -1.10031e-05 -136982 -2.68325e-08 -7.87095e+06)
(-2.58696e+07 -111266 -1.10136e-05 -135801 -2.65961e-08 -7.80162e+06)
(-2.56396e+07 -111262 -1.08998e-05 -134586 5.48642e-06 -7.73226e+06)
(-2.54095e+07 -111255 -1.10343e-05 -133322 -2.61232e-08 -7.66284e+06)
(-2.51793e+07 -111232 -2.20891e-05 -132083 -5.17733e-08 -7.59342e+06)
(-2.49491e+07 -111194 -1.20911e-07 -130886 -5.52811e-06 -7.52401e+06)
(-2.47191e+07 -111172 7.43622e-20 -129666 3.37922e-18 -7.45462e+06)
(-2.4489e+07 -111174 -1.10746e-05 -128434 -2.5177e-08 -7.38523e+06)
(-2.4259e+07 -111184 -2.22865e-05 -127261 -5.59289e-06 -7.31586e+06)
(-2.40289e+07 -111201 -1.09778e-05 -126096 5.52318e-06 -7.24651e+06)
(-2.37989e+07 -111229 -2.20924e-05 -124838 5.50378e-06 -7.17714e+06)
(-2.35689e+07 -111252 -1.11134e-05 -123544 -2.42313e-08 -7.10774e+06)
(-2.33389e+07 -111251 -2.22458e-05 -122329 -4.79896e-08 -7.03837e+06)
(-2.3109e+07 -111241 -2.22646e-05 -121157 -4.75167e-08 -6.96904e+06)
(-2.28792e+07 -111246 -2.22832e-05 -119943 -4.70443e-08 -6.89974e+06)
(-2.26495e+07 -111257 1.09766e-07 -118732 5.57616e-06 -6.83046e+06)
(-2.24197e+07 -111268 -2.23197e-05 -117579 -4.60995e-08 -6.76119e+06)
(-2.219e+07 -111294 -1.11689e-05 -116426 -2.28135e-08 -6.69193e+06)
(-2.19602e+07 -111328 -2.23556e-05 -115217 -4.51544e-08 -6.62262e+06)
(-2.17303e+07 -111348 -2.23732e-05 -113982 -4.46818e-08 -6.55327e+06)
(-2.15003e+07 -111347 -3.34819e-05 -112750 5.53214e-06 -6.48391e+06)
(-2.12702e+07 -111343 -2.25111e-05 -111517 -5.64651e-06 -6.41452e+06)
(-2.10401e+07 -111344 -7.0795e-20 -110298 -2.49107e-18 -6.34513e+06)
(-2.08101e+07 -111347 -2.23411e-05 -109108 5.56848e-06 -6.27575e+06)
(-2.058e+07 -111349 -2.26582e-05 -107924 -1.12732e-05 -6.20638e+06)
(-2.03499e+07 -111349 -1.13362e-05 -106719 -5.6405e-06 -6.137e+06)
(-2.01199e+07 -111342 -1.10508e-05 -105501 1.12267e-05 -6.06761e+06)
(-1.98898e+07 -111328 -2.25077e-05 -104276 -4.08978e-08 -5.99821e+06)
(-1.96597e+07 -111311 -1.14524e-05 -103041 -1.12836e-05 -5.92882e+06)
(-1.94297e+07 -111288 -1.13639e-05 -101802 -5.65562e-06 -5.85946e+06)
(-1.91999e+07 -111264 0 -100564 0 -5.79013e+06)
(-1.897e+07 -111256 1.8387e-07 -99342.6 1.12868e-05 -5.72082e+06)
(-1.87402e+07 -111264 -2.24041e-05 -98187.8 1.12559e-05 -5.6515e+06)
(-1.85102e+07 -111276 -2.26905e-05 -97082.5 -5.68903e-06 -5.58217e+06)
(-1.82801e+07 -111285 -2.27042e-05 -95900.7 -5.69227e-06 -5.51281e+06)
(-1.80501e+07 -111291 -1.14026e-05 -94595.8 -5.67691e-06 -5.44342e+06)
(-1.78201e+07 -111282 -1.14088e-05 -93311.1 -5.68029e-06 -5.37403e+06)
(-1.75901e+07 -111262 1.70495e-07 -92126.8 1.13311e-05 -5.30468e+06)
(-1.73602e+07 -111255 -2.25049e-05 -90938.8 1.13025e-05 -5.23534e+06)
(-1.71302e+07 -111260 -2.27702e-05 -89706.2 -5.70778e-06 -5.16598e+06)