/*--------------------------------*- C++ -*----------------------------------*\
| =========                 |                                                 |
| \\      /  F ield         | foam-extend: Open Source CFD                    |
|  \\    /   O peration     | Version:     4.1                                |
|   \\  /    A nd           | Web:         http://www.foam-extend.org         |
|    \\/     M anipulation  |                                                 |
\*---------------------------------------------------------------------------*/
FoamFile
{
    version     2.0;
    format      ascii;
    class       volScalarField;
    location    "1";
    object      sigmaHyd;
}
// * * * * * * * * * * * * * * * * * * * * * * * * * * * * * * * * * * * * * //

dimensions      [1 -1 -2 0 0 0 0];

internalField   nonuniform List<scalar> 
12500
(
6.15564e+07
5.11787e+07
4.8979e+07
4.76659e+07
4.75821e+07
4.75667e+07
4.77612e+07
4.79248e+07
4.80935e+07
4.82172e+07
4.83094e+07
4.83638e+07
4.83883e+07
4.83856e+07
4.83614e+07
4.83194e+07
4.82634e+07
4.81965e+07
4.8121e+07
4.80391e+07
4.79522e+07
4.78617e+07
4.77684e+07
4.76731e+07
4.75763e+07
4.74785e+07
4.738e+07
4.72809e+07
4.71814e+07
4.70817e+07
4.69819e+07
4.68819e+07
4.67819e+07
4.66819e+07
4.65818e+07
4.64817e+07
4.63816e+07
4.62815e+07
4.61814e+07
4.60813e+07
4.59812e+07
4.58811e+07
4.57811e+07
4.5681e+07
4.55809e+07
4.54808e+07
4.53807e+07
4.52807e+07
4.51806e+07
4.50805e+07
4.49804e+07
4.48804e+07
4.47803e+07
4.46803e+07
4.45803e+07
4.44803e+07
4.43803e+07
4.42803e+07
4.41802e+07
4.40802e+07
4.39801e+07
4.38801e+07
4.378e+07
4.368e+07
4.35799e+07
4.34798e+07
4.33798e+07
4.32797e+07
4.31796e+07
4.30796e+07
4.29795e+07
4.28795e+07
4.27794e+07
4.26793e+07
4.25793e+07
4.24792e+07
4.23791e+07
4.2279e+07
4.21789e+07
4.20789e+07
4.19788e+07
4.18788e+07
4.17787e+07
4.16787e+07
4.15787e+07
4.14786e+07
4.13786e+07
4.12786e+07
4.11786e+07
4.10786e+07
4.09786e+07
4.08785e+07
4.07785e+07
4.06785e+07
4.05785e+07
4.04784e+07
4.03784e+07
4.02784e+07
4.01784e+07
4.00784e+07
3.99784e+07
3.98784e+07
3.97784e+07
3.96784e+07
3.95784e+07
3.94785e+07
3.93785e+07
3.92785e+07
3.91785e+07
3.90785e+07
3.89785e+07
3.88785e+07
3.87785e+07
3.86785e+07
3.85785e+07
3.84785e+07
3.83785e+07
3.82785e+07
3.81785e+07
3.80784e+07
3.79784e+07
3.78784e+07
3.77784e+07
3.76785e+07
3.75785e+07
3.74785e+07
3.73784e+07
3.72784e+07
3.71784e+07
3.70784e+07
3.69784e+07
3.68784e+07
3.67784e+07
3.66784e+07
3.65783e+07
3.64783e+07
3.63782e+07
3.62782e+07
3.61782e+07
3.60782e+07
3.59781e+07
3.58781e+07
3.57781e+07
3.5678e+07
3.5578e+07
3.5478e+07
3.5378e+07
3.5278e+07
3.5178e+07
3.5078e+07
3.4978e+07
3.4878e+07
3.4778e+07
3.4678e+07
3.45779e+07
3.44779e+07
3.43779e+07
3.42778e+07
3.41777e+07
3.40777e+07
3.39776e+07
3.38775e+07
3.37775e+07
3.36775e+07
3.35774e+07
3.34774e+07
3.33774e+07
3.32774e+07
3.31775e+07
3.30775e+07
3.29775e+07
3.28775e+07
3.27775e+07
3.26774e+07
3.25774e+07
3.24774e+07
3.23774e+07
3.22773e+07
3.21773e+07
3.20772e+07
3.19772e+07
3.18772e+07
3.17771e+07
3.16771e+07
3.1577e+07
3.1477e+07
3.13769e+07
3.12768e+07
3.11768e+07
3.10767e+07
3.09767e+07
3.08767e+07
3.07766e+07
3.06766e+07
3.05765e+07
3.04765e+07
3.03765e+07
3.02765e+07
3.01764e+07
3.00764e+07
2.99764e+07
2.98763e+07
2.97763e+07
2.96763e+07
2.95763e+07
2.94763e+07
2.93763e+07
2.92763e+07
2.91763e+07
2.90764e+07
2.89764e+07
2.88764e+07
2.87764e+07
2.86764e+07
2.85764e+07
2.84764e+07
2.83765e+07
2.82766e+07
2.81766e+07
2.80766e+07
2.79766e+07
2.78766e+07
2.77766e+07
2.76766e+07
2.75766e+07
2.74766e+07
2.73766e+07
2.72767e+07
2.71766e+07
2.70766e+07
2.69766e+07
2.68766e+07
2.67766e+07
2.66766e+07
2.65766e+07
2.64766e+07
2.63765e+07
2.62765e+07
2.61765e+07
2.60765e+07
2.59765e+07
2.58765e+07
2.57766e+07
2.56766e+07
2.55766e+07
2.54766e+07
2.53766e+07
2.52765e+07
2.51765e+07
2.50766e+07
2.49765e+07
2.48765e+07
2.47765e+07
2.46765e+07
2.45764e+07
2.44763e+07
2.43763e+07
2.42763e+07
2.41763e+07
2.40763e+07
2.39764e+07
2.38764e+07
2.37765e+07
2.36765e+07
2.35766e+07
2.34766e+07
2.33765e+07
2.32765e+07
2.31764e+07
2.30763e+07
2.29762e+07
2.28762e+07
2.27761e+07
2.26761e+07
2.2576e+07
2.2476e+07
2.23759e+07
2.22758e+07
2.21757e+07
2.20757e+07
2.19756e+07
2.18755e+07
2.17755e+07
2.16754e+07
2.15753e+07
2.14753e+07
2.13752e+07
2.12752e+07
2.11752e+07
2.10752e+07
2.09752e+07
2.08752e+07
2.07751e+07
2.0675e+07
2.05749e+07
2.04747e+07
2.03746e+07
2.02744e+07
2.01743e+07
2.00742e+07
1.99742e+07
1.98741e+07
1.9774e+07
1.96739e+07
1.95738e+07
1.94737e+07
1.93736e+07
1.92735e+07
1.91734e+07
1.90734e+07
1.89733e+07
1.88732e+07
1.87731e+07
1.86731e+07
1.8573e+07
1.84729e+07
1.83728e+07
1.82727e+07
1.81727e+07
1.80726e+07
1.79727e+07
1.78727e+07
1.77726e+07
1.76727e+07
1.75727e+07
1.74727e+07
1.73727e+07
1.72726e+07
1.71726e+07
1.70726e+07
1.69725e+07
1.68725e+07
1.67725e+07
1.66724e+07
1.65724e+07
1.64725e+07
1.63725e+07
1.62725e+07
1.61724e+07
1.60723e+07
1.59722e+07
1.58721e+07
1.5772e+07
1.5672e+07
1.5572e+07
1.5472e+07
1.53719e+07
1.52718e+07
1.51717e+07
1.50715e+07
1.49713e+07
1.48712e+07
1.47711e+07
1.4671e+07
1.45709e+07
1.44709e+07
1.43709e+07
1.42708e+07
1.41708e+07
1.40708e+07
1.39708e+07
1.38707e+07
1.37706e+07
1.36705e+07
1.35704e+07
1.34702e+07
1.33701e+07
1.327e+07
1.31699e+07
1.30698e+07
1.29698e+07
1.28698e+07
1.27698e+07
1.26698e+07
1.25698e+07
1.24698e+07
1.23698e+07
1.22698e+07
1.21697e+07
1.20697e+07
1.19696e+07
1.18695e+07
1.17694e+07
1.16693e+07
1.15693e+07
1.14692e+07
1.13692e+07
1.1269e+07
1.11688e+07
1.10686e+07
1.09683e+07
1.0868e+07
1.07678e+07
1.06676e+07
1.05674e+07
1.04672e+07
1.0367e+07
1.02667e+07
1.01665e+07
1.00664e+07
9.96629e+06
9.86621e+06
9.76617e+06
9.66612e+06
9.56601e+06
9.46584e+06
9.36564e+06
9.26542e+06
9.16519e+06
9.06497e+06
8.96477e+06
8.86455e+06
8.76432e+06
8.66408e+06
8.56385e+06
8.46366e+06
8.36352e+06
8.2634e+06
8.16328e+06
8.06314e+06
7.96295e+06
7.86271e+06
7.76248e+06
7.66232e+06
7.56216e+06
7.46197e+06
7.36177e+06
7.26159e+06
7.16142e+06
7.06125e+06
6.96111e+06
6.86096e+06
6.76078e+06
6.66059e+06
6.56045e+06
6.46036e+06
6.36023e+06
6.26008e+06
6.15995e+06
6.0598e+06
5.9596e+06
5.85941e+06
5.75928e+06
5.6592e+06
5.5591e+06
5.45897e+06
5.3588e+06
5.2586e+06
5.15839e+06
5.05822e+06
4.9581e+06
4.85802e+06
4.75795e+06
4.65785e+06
4.55768e+06
4.45747e+06
4.35724e+06
4.25702e+06
4.15685e+06
4.05669e+06
3.95648e+06
3.85623e+06
3.75603e+06
3.65589e+06
3.55571e+06
3.45547e+06
3.35521e+06
3.25502e+06
3.15487e+06
3.05474e+06
2.95458e+06
2.85438e+06
2.75417e+06
2.654e+06
2.55389e+06
2.45381e+06
2.35373e+06
2.25375e+06
2.15391e+06
2.05425e+06
1.95477e+06
1.85553e+06
1.75672e+06
1.65858e+06
1.56125e+06
1.46481e+06
1.36958e+06
1.27605e+06
1.18473e+06
1.096e+06
1.01056e+06
928979
852477
780551
715468
651586
593732
509072
394901
-3205.38
5.63836e+07
4.97748e+07
4.72431e+07
4.55332e+07
4.48231e+07
4.43423e+07
4.41539e+07
4.40386e+07
4.40011e+07
4.39778e+07
4.39662e+07
4.39488e+07
4.39249e+07
4.3891e+07
4.38478e+07
4.37956e+07
4.37357e+07
4.36692e+07
4.35973e+07
4.3521e+07
4.34412e+07
4.33587e+07
4.32741e+07
4.31879e+07
4.31005e+07
4.30121e+07
4.29231e+07
4.28336e+07
4.27437e+07
4.26536e+07
4.25633e+07
4.24729e+07
4.23824e+07
4.22918e+07
4.22012e+07
4.21106e+07
4.20199e+07
4.19293e+07
4.18386e+07
4.17479e+07
4.16573e+07
4.15666e+07
4.1476e+07
4.13853e+07
4.12947e+07
4.1204e+07
4.11133e+07
4.10227e+07
4.0932e+07
4.08413e+07
4.07507e+07
4.06601e+07
4.05694e+07
4.04788e+07
4.03882e+07
4.02976e+07
4.02069e+07
4.01163e+07
4.00257e+07
3.9935e+07
3.98444e+07
3.97537e+07
3.96631e+07
3.95724e+07
3.94818e+07
3.93911e+07
3.93005e+07
3.92098e+07
3.91192e+07
3.90285e+07
3.89379e+07
3.88472e+07
3.87566e+07
3.86659e+07
3.85753e+07
3.84846e+07
3.8394e+07
3.83033e+07
3.82126e+07
3.8122e+07
3.80313e+07
3.79407e+07
3.785e+07
3.77594e+07
3.76688e+07
3.75782e+07
3.74876e+07
3.73969e+07
3.73063e+07
3.72157e+07
3.71251e+07
3.70345e+07
3.69438e+07
3.68532e+07
3.67626e+07
3.6672e+07
3.65814e+07
3.64908e+07
3.64002e+07
3.63096e+07
3.6219e+07
3.61284e+07
3.60378e+07
3.59472e+07
3.58567e+07
3.57661e+07
3.56755e+07
3.55849e+07
3.54943e+07
3.54037e+07
3.53131e+07
3.52225e+07
3.51319e+07
3.50413e+07
3.49507e+07
3.48601e+07
3.47695e+07
3.46789e+07
3.45883e+07
3.44977e+07
3.44071e+07
3.43165e+07
3.42259e+07
3.41353e+07
3.40447e+07
3.39541e+07
3.38635e+07
3.37729e+07
3.36823e+07
3.35917e+07
3.35011e+07
3.34105e+07
3.33198e+07
3.32292e+07
3.31386e+07
3.3048e+07
3.29574e+07
3.28668e+07
3.27761e+07
3.26855e+07
3.25949e+07
3.25043e+07
3.24136e+07
3.2323e+07
3.22324e+07
3.21418e+07
3.20512e+07
3.19606e+07
3.187e+07
3.17794e+07
3.16888e+07
3.15982e+07
3.15076e+07
3.1417e+07
3.13264e+07
3.12357e+07
3.11451e+07
3.10544e+07
3.09638e+07
3.08732e+07
3.07825e+07
3.06918e+07
3.06012e+07
3.05106e+07
3.042e+07
3.03293e+07
3.02388e+07
3.01482e+07
3.00576e+07
2.9967e+07
2.98764e+07
2.97858e+07
2.96952e+07
2.96046e+07
2.95139e+07
2.94233e+07
2.93327e+07
2.92421e+07
2.91515e+07
2.90608e+07
2.89702e+07
2.88796e+07
2.87889e+07
2.86983e+07
2.86076e+07
2.8517e+07
2.84264e+07
2.83357e+07
2.82451e+07
2.81544e+07
2.80638e+07
2.79731e+07
2.78825e+07
2.77919e+07
2.77013e+07
2.76107e+07
2.752e+07
2.74294e+07
2.73388e+07
2.72481e+07
2.71575e+07
2.70669e+07
2.69763e+07
2.68857e+07
2.67951e+07
2.67045e+07
2.66139e+07
2.65233e+07
2.64327e+07
2.63421e+07
2.62515e+07
2.61609e+07
2.60704e+07
2.59798e+07
2.58892e+07
2.57986e+07
2.57081e+07
2.56175e+07
2.5527e+07
2.54364e+07
2.53458e+07
2.52552e+07
2.51646e+07
2.5074e+07
2.49834e+07
2.48928e+07
2.48022e+07
2.47117e+07
2.46211e+07
2.45305e+07
2.44398e+07
2.43492e+07
2.42586e+07
2.4168e+07
2.40774e+07
2.39868e+07
2.38962e+07
2.38056e+07
2.3715e+07
2.36244e+07
2.35338e+07
2.34432e+07
2.33526e+07
2.3262e+07
2.31714e+07
2.30809e+07
2.29903e+07
2.28996e+07
2.2809e+07
2.27184e+07
2.26278e+07
2.25372e+07
2.24466e+07
2.2356e+07
2.22653e+07
2.21747e+07
2.20841e+07
2.19935e+07
2.19029e+07
2.18123e+07
2.17217e+07
2.16312e+07
2.15406e+07
2.14501e+07
2.13595e+07
2.12689e+07
2.11782e+07
2.10876e+07
2.09969e+07
2.09063e+07
2.08157e+07
2.0725e+07
2.06344e+07
2.05437e+07
2.04531e+07
2.03624e+07
2.02717e+07
2.01811e+07
2.00904e+07
1.99998e+07
1.99091e+07
1.98185e+07
1.97278e+07
1.96371e+07
1.95465e+07
1.94558e+07
1.93652e+07
1.92746e+07
1.9184e+07
1.90933e+07
1.90027e+07
1.89121e+07
1.88214e+07
1.87308e+07
1.86401e+07
1.85494e+07
1.84587e+07
1.83679e+07
1.82772e+07
1.81866e+07
1.80959e+07
1.80052e+07
1.79145e+07
1.78238e+07
1.77332e+07
1.76425e+07
1.75518e+07
1.74611e+07
1.73704e+07
1.72798e+07
1.71891e+07
1.70984e+07
1.70078e+07
1.69171e+07
1.68264e+07
1.67358e+07
1.66451e+07
1.65545e+07
1.64638e+07
1.63732e+07
1.62826e+07
1.6192e+07
1.61014e+07
1.60108e+07
1.59202e+07
1.58296e+07
1.5739e+07
1.56484e+07
1.55578e+07
1.54671e+07
1.53765e+07
1.52859e+07
1.51953e+07
1.51046e+07
1.5014e+07
1.49234e+07
1.48329e+07
1.47422e+07
1.46516e+07
1.45609e+07
1.44703e+07
1.43796e+07
1.42889e+07
1.41983e+07
1.41077e+07
1.4017e+07
1.39264e+07
1.38357e+07
1.3745e+07
1.36542e+07
1.35635e+07
1.34728e+07
1.33821e+07
1.32914e+07
1.32008e+07
1.31101e+07
1.30195e+07
1.29289e+07
1.28382e+07
1.27476e+07
1.2657e+07
1.25663e+07
1.24756e+07
1.2385e+07
1.22943e+07
1.22036e+07
1.21129e+07
1.20222e+07
1.19315e+07
1.18408e+07
1.17502e+07
1.16596e+07
1.1569e+07
1.14784e+07
1.13877e+07
1.12971e+07
1.12065e+07
1.11159e+07
1.10253e+07
1.09346e+07
1.0844e+07
1.07533e+07
1.06627e+07
1.0572e+07
1.04813e+07
1.03906e+07
1.02999e+07
1.02092e+07
1.01185e+07
1.00277e+07
9.93683e+06
9.84602e+06
9.75522e+06
9.66441e+06
9.57363e+06
9.48289e+06
9.39214e+06
9.30134e+06
9.21057e+06
9.11985e+06
9.02914e+06
8.93845e+06
8.84778e+06
8.75712e+06
8.66642e+06
8.57568e+06
8.48492e+06
8.39414e+06
8.30334e+06
8.21253e+06
8.12174e+06
8.03096e+06
7.94017e+06
7.84938e+06
7.75859e+06
7.66783e+06
7.5771e+06
7.48637e+06
7.39562e+06
7.30488e+06
7.21413e+06
7.12335e+06
7.03256e+06
6.94183e+06
6.85109e+06
6.76031e+06
6.66952e+06
6.57877e+06
6.48803e+06
6.39727e+06
6.30655e+06
6.21585e+06
6.12509e+06
6.03428e+06
5.94354e+06
5.85285e+06
5.76213e+06
5.67139e+06
5.5807e+06
5.49e+06
5.39924e+06
5.30847e+06
5.21775e+06
5.12704e+06
5.03633e+06
4.94559e+06
4.85487e+06
4.76412e+06
4.67335e+06
4.5826e+06
4.49188e+06
4.40117e+06
4.31047e+06
4.21976e+06
4.12901e+06
4.03826e+06
3.9475e+06
3.85672e+06
3.76594e+06
3.67517e+06
3.58438e+06
3.49358e+06
3.40283e+06
3.31214e+06
3.22139e+06
3.13058e+06
3.03976e+06
2.949e+06
2.85824e+06
2.76748e+06
2.67676e+06
2.58603e+06
2.49528e+06
2.40453e+06
2.31385e+06
2.22321e+06
2.13258e+06
2.04204e+06
1.95163e+06
1.86137e+06
1.77124e+06
1.68132e+06
1.59174e+06
1.50263e+06
1.41403e+06
1.32598e+06
1.23874e+06
1.15249e+06
1.06742e+06
983388
900597
818769
737831
655440
571388
476717
371107
219370
18214
-398607
5.26394e+07
4.78339e+07
4.5336e+07
4.33064e+07
4.22483e+07
4.14724e+07
4.10518e+07
4.07599e+07
4.05915e+07
4.04725e+07
4.03925e+07
4.0327e+07
4.02705e+07
4.02152e+07
4.01589e+07
4.00998e+07
4.00374e+07
3.99716e+07
3.99026e+07
3.98309e+07
3.97568e+07
3.96807e+07
3.9603e+07
3.95241e+07
3.94441e+07
3.93634e+07
3.92821e+07
3.92003e+07
3.91182e+07
3.90359e+07
3.89533e+07
3.88707e+07
3.87879e+07
3.8705e+07
3.86222e+07
3.85393e+07
3.84563e+07
3.83734e+07
3.82904e+07
3.82075e+07
3.81245e+07
3.80416e+07
3.79586e+07
3.78756e+07
3.77927e+07
3.77097e+07
3.76267e+07
3.75437e+07
3.74608e+07
3.73778e+07
3.72948e+07
3.72119e+07
3.7129e+07
3.7046e+07
3.69631e+07
3.68801e+07
3.67972e+07
3.67142e+07
3.66313e+07
3.65483e+07
3.64654e+07
3.63824e+07
3.62994e+07
3.62165e+07
3.61335e+07
3.60505e+07
3.59676e+07
3.58846e+07
3.58017e+07
3.57187e+07
3.56358e+07
3.55528e+07
3.54698e+07
3.53869e+07
3.53039e+07
3.52209e+07
3.5138e+07
3.5055e+07
3.4972e+07
3.48891e+07
3.48061e+07
3.47231e+07
3.46402e+07
3.45572e+07
3.44743e+07
3.43914e+07
3.43084e+07
3.42255e+07
3.41426e+07
3.40596e+07
3.39767e+07
3.38937e+07
3.38108e+07
3.37279e+07
3.36449e+07
3.3562e+07
3.34791e+07
3.33962e+07
3.33133e+07
3.32304e+07
3.31474e+07
3.30645e+07
3.29816e+07
3.28987e+07
3.28158e+07
3.27329e+07
3.265e+07
3.25671e+07
3.24842e+07
3.24013e+07
3.23184e+07
3.22355e+07
3.21526e+07
3.20697e+07
3.19867e+07
3.19038e+07
3.18209e+07
3.17379e+07
3.1655e+07
3.15721e+07
3.14892e+07
3.14063e+07
3.13233e+07
3.12404e+07
3.11575e+07
3.10746e+07
3.09917e+07
3.09088e+07
3.08259e+07
3.07429e+07
3.066e+07
3.05771e+07
3.04941e+07
3.04112e+07
3.03283e+07
3.02454e+07
3.01624e+07
3.00795e+07
2.99966e+07
2.99136e+07
2.98306e+07
2.97477e+07
2.96648e+07
2.95818e+07
2.94989e+07
2.9416e+07
2.93331e+07
2.92501e+07
2.91672e+07
2.90843e+07
2.90014e+07
2.89185e+07
2.88356e+07
2.87527e+07
2.86697e+07
2.85868e+07
2.85038e+07
2.84208e+07
2.83379e+07
2.82549e+07
2.8172e+07
2.8089e+07
2.80061e+07
2.79232e+07
2.78402e+07
2.77573e+07
2.76743e+07
2.75914e+07
2.75085e+07
2.74256e+07
2.73427e+07
2.72598e+07
2.71768e+07
2.70939e+07
2.7011e+07
2.69281e+07
2.68451e+07
2.67622e+07
2.66793e+07
2.65963e+07
2.65134e+07
2.64304e+07
2.63475e+07
2.62645e+07
2.61816e+07
2.60986e+07
2.60156e+07
2.59327e+07
2.58498e+07
2.57668e+07
2.56838e+07
2.56009e+07
2.55179e+07
2.5435e+07
2.53521e+07
2.52691e+07
2.51862e+07
2.51033e+07
2.50203e+07
2.49374e+07
2.48544e+07
2.47715e+07
2.46886e+07
2.46056e+07
2.45227e+07
2.44398e+07
2.43569e+07
2.4274e+07
2.41911e+07
2.41082e+07
2.40253e+07
2.39423e+07
2.38594e+07
2.37766e+07
2.36937e+07
2.36108e+07
2.35279e+07
2.3445e+07
2.33621e+07
2.32792e+07
2.31963e+07
2.31134e+07
2.30305e+07
2.29476e+07
2.28647e+07
2.27818e+07
2.26989e+07
2.2616e+07
2.25331e+07
2.24501e+07
2.23672e+07
2.22843e+07
2.22014e+07
2.21184e+07
2.20355e+07
2.19526e+07
2.18697e+07
2.17868e+07
2.17038e+07
2.16209e+07
2.1538e+07
2.14551e+07
2.13722e+07
2.12893e+07
2.12064e+07
2.11235e+07
2.10406e+07
2.09576e+07
2.08747e+07
2.07918e+07
2.07089e+07
2.06259e+07
2.0543e+07
2.04601e+07
2.03771e+07
2.02942e+07
2.02113e+07
2.01283e+07
2.00454e+07
1.99625e+07
1.98796e+07
1.97967e+07
1.97139e+07
1.9631e+07
1.95481e+07
1.94651e+07
1.93822e+07
1.92993e+07
1.92163e+07
1.91333e+07
1.90504e+07
1.89674e+07
1.88845e+07
1.88015e+07
1.87186e+07
1.86356e+07
1.85526e+07
1.84696e+07
1.83867e+07
1.83037e+07
1.82207e+07
1.81378e+07
1.80548e+07
1.79718e+07
1.78889e+07
1.78059e+07
1.77229e+07
1.764e+07
1.75571e+07
1.74741e+07
1.73912e+07
1.73082e+07
1.72253e+07
1.71423e+07
1.70593e+07
1.69763e+07
1.68933e+07
1.68103e+07
1.67273e+07
1.66443e+07
1.65613e+07
1.64783e+07
1.63953e+07
1.63123e+07
1.62293e+07
1.61463e+07
1.60633e+07
1.59803e+07
1.58973e+07
1.58144e+07
1.57314e+07
1.56484e+07
1.55654e+07
1.54825e+07
1.53995e+07
1.53165e+07
1.52335e+07
1.51506e+07
1.50676e+07
1.49847e+07
1.49017e+07
1.48189e+07
1.47359e+07
1.4653e+07
1.45701e+07
1.44872e+07
1.44042e+07
1.43213e+07
1.42384e+07
1.41554e+07
1.40725e+07
1.39896e+07
1.39066e+07
1.38237e+07
1.37408e+07
1.36578e+07
1.35749e+07
1.3492e+07
1.34091e+07
1.33261e+07
1.32431e+07
1.31601e+07
1.30772e+07
1.29942e+07
1.29112e+07
1.28283e+07
1.27453e+07
1.26623e+07
1.25793e+07
1.24963e+07
1.24133e+07
1.23302e+07
1.22472e+07
1.21643e+07
1.20813e+07
1.19983e+07
1.19154e+07
1.18325e+07
1.17495e+07
1.16665e+07
1.15836e+07
1.15006e+07
1.14176e+07
1.13346e+07
1.12517e+07
1.11687e+07
1.10856e+07
1.10026e+07
1.09197e+07
1.08367e+07
1.07537e+07
1.06708e+07
1.05879e+07
1.05049e+07
1.0422e+07
1.0339e+07
1.02561e+07
1.01732e+07
1.00902e+07
1.00073e+07
9.92433e+06
9.84139e+06
9.75841e+06
9.6754e+06
9.59241e+06
9.50943e+06
9.4264e+06
9.34337e+06
9.26033e+06
9.17725e+06
9.09412e+06
9.011e+06
8.92791e+06
8.84481e+06
8.76172e+06
8.67867e+06
8.59564e+06
8.51257e+06
8.42948e+06
8.34644e+06
8.26345e+06
8.18045e+06
8.09744e+06
8.01445e+06
7.93144e+06
7.8484e+06
7.76535e+06
7.68228e+06
7.59918e+06
7.51608e+06
7.43298e+06
7.34989e+06
7.26681e+06
7.18373e+06
7.10065e+06
7.01759e+06
6.93455e+06
6.85152e+06
6.76845e+06
6.68536e+06
6.60232e+06
6.51927e+06
6.43619e+06
6.35312e+06
6.27009e+06
6.18704e+06
6.10396e+06
6.0209e+06
5.93786e+06
5.85479e+06
5.77173e+06
5.68872e+06
5.6057e+06
5.52262e+06
5.43954e+06
5.35652e+06
5.27351e+06
5.19044e+06
5.10739e+06
5.02439e+06
4.94138e+06
4.85835e+06
4.77531e+06
4.69227e+06
4.60922e+06
4.52617e+06
4.44315e+06
4.36012e+06
4.27707e+06
4.19401e+06
4.11095e+06
4.02792e+06
3.94491e+06
3.86187e+06
3.7788e+06
3.69573e+06
3.6127e+06
3.52966e+06
3.44656e+06
3.36347e+06
3.28041e+06
3.19732e+06
3.11424e+06
3.0312e+06
2.94817e+06
2.86511e+06
2.78202e+06
2.69898e+06
2.61591e+06
2.5328e+06
2.44974e+06
2.36676e+06
2.28378e+06
2.20074e+06
2.11773e+06
2.03479e+06
1.95186e+06
1.86901e+06
1.78626e+06
1.70365e+06
1.62115e+06
1.53886e+06
1.45679e+06
1.37501e+06
1.29357e+06
1.21248e+06
1.13188e+06
1.05169e+06
971953
892364
812747
732290
650368
563770
471651
363604
240288
66969.1
-142051
-497770
4.75545e+07
4.37886e+07
4.18027e+07
3.99392e+07
3.88405e+07
3.79669e+07
3.74192e+07
3.70118e+07
3.67423e+07
3.65429e+07
3.64003e+07
3.62884e+07
3.61985e+07
3.61202e+07
3.60492e+07
3.59815e+07
3.59154e+07
3.58492e+07
3.57825e+07
3.5715e+07
3.56464e+07
3.55769e+07
3.55064e+07
3.54352e+07
3.53633e+07
3.52909e+07
3.52179e+07
3.51447e+07
3.50711e+07
3.49974e+07
3.49235e+07
3.48494e+07
3.47753e+07
3.47011e+07
3.46268e+07
3.45525e+07
3.44782e+07
3.44038e+07
3.43295e+07
3.42551e+07
3.41808e+07
3.41064e+07
3.4032e+07
3.39576e+07
3.38832e+07
3.38089e+07
3.37345e+07
3.36601e+07
3.35857e+07
3.35113e+07
3.34369e+07
3.33626e+07
3.32882e+07
3.32138e+07
3.31395e+07
3.30651e+07
3.29908e+07
3.29164e+07
3.2842e+07
3.27676e+07
3.26932e+07
3.26189e+07
3.25445e+07
3.24701e+07
3.23957e+07
3.23213e+07
3.2247e+07
3.21726e+07
3.20982e+07
3.20238e+07
3.19495e+07
3.18751e+07
3.18007e+07
3.17263e+07
3.16519e+07
3.15775e+07
3.15032e+07
3.14288e+07
3.13544e+07
3.128e+07
3.12056e+07
3.11313e+07
3.10569e+07
3.09825e+07
3.09082e+07
3.08338e+07
3.07594e+07
3.06851e+07
3.06107e+07
3.05364e+07
3.0462e+07
3.03877e+07
3.03133e+07
3.0239e+07
3.01646e+07
3.00903e+07
3.00159e+07
2.99416e+07
2.98672e+07
2.97929e+07
2.97186e+07
2.96442e+07
2.95699e+07
2.94956e+07
2.94212e+07
2.93469e+07
2.92726e+07
2.91983e+07
2.91239e+07
2.90496e+07
2.89752e+07
2.89009e+07
2.88266e+07
2.87522e+07
2.86779e+07
2.86035e+07
2.85292e+07
2.84549e+07
2.83805e+07
2.83062e+07
2.82318e+07
2.81575e+07
2.80832e+07
2.80088e+07
2.79345e+07
2.78602e+07
2.77858e+07
2.77115e+07
2.76371e+07
2.75628e+07
2.74884e+07
2.74141e+07
2.73397e+07
2.72654e+07
2.7191e+07
2.71167e+07
2.70423e+07
2.69679e+07
2.68936e+07
2.68192e+07
2.67449e+07
2.66705e+07
2.65962e+07
2.65218e+07
2.64474e+07
2.63731e+07
2.62988e+07
2.62244e+07
2.61501e+07
2.60757e+07
2.60014e+07
2.5927e+07
2.58527e+07
2.57784e+07
2.5704e+07
2.56296e+07
2.55553e+07
2.54809e+07
2.54065e+07
2.53322e+07
2.52578e+07
2.51834e+07
2.5109e+07
2.50347e+07
2.49603e+07
2.4886e+07
2.48116e+07
2.47373e+07
2.46629e+07
2.45886e+07
2.45143e+07
2.44399e+07
2.43656e+07
2.42912e+07
2.42169e+07
2.41425e+07
2.40682e+07
2.39938e+07
2.39194e+07
2.38451e+07
2.37707e+07
2.36963e+07
2.3622e+07
2.35476e+07
2.34732e+07
2.33989e+07
2.33245e+07
2.32501e+07
2.31757e+07
2.31014e+07
2.3027e+07
2.29526e+07
2.28783e+07
2.28039e+07
2.27295e+07
2.26552e+07
2.25808e+07
2.25065e+07
2.24321e+07
2.23578e+07
2.22834e+07
2.2209e+07
2.21347e+07
2.20603e+07
2.1986e+07
2.19116e+07
2.18373e+07
2.1763e+07
2.16887e+07
2.16143e+07
2.154e+07
2.14657e+07
2.13913e+07
2.1317e+07
2.12427e+07
2.11684e+07
2.10941e+07
2.10198e+07
2.09454e+07
2.08711e+07
2.07968e+07
2.07224e+07
2.06481e+07
2.05738e+07
2.04995e+07
2.04251e+07
2.03508e+07
2.02765e+07
2.02021e+07
2.01278e+07
2.00534e+07
1.99791e+07
1.99048e+07
1.98304e+07
1.97561e+07
1.96817e+07
1.96074e+07
1.9533e+07
1.94587e+07
1.93844e+07
1.931e+07
1.92357e+07
1.91614e+07
1.9087e+07
1.90127e+07
1.89384e+07
1.8864e+07
1.87897e+07
1.87153e+07
1.8641e+07
1.85667e+07
1.84923e+07
1.84179e+07
1.83436e+07
1.82692e+07
1.81949e+07
1.81205e+07
1.80462e+07
1.79719e+07
1.78975e+07
1.78232e+07
1.77489e+07
1.76746e+07
1.76002e+07
1.75259e+07
1.74516e+07
1.73772e+07
1.73028e+07
1.72285e+07
1.71541e+07
1.70797e+07
1.70053e+07
1.6931e+07
1.68566e+07
1.67822e+07
1.67079e+07
1.66335e+07
1.65591e+07
1.64847e+07
1.64103e+07
1.63359e+07
1.62615e+07
1.61872e+07
1.61128e+07
1.60384e+07
1.5964e+07
1.58896e+07
1.58152e+07
1.57409e+07
1.56665e+07
1.55922e+07
1.55178e+07
1.54434e+07
1.5369e+07
1.52946e+07
1.52202e+07
1.51458e+07
1.50714e+07
1.4997e+07
1.49226e+07
1.48481e+07
1.47737e+07
1.46993e+07
1.46249e+07
1.45505e+07
1.44761e+07
1.44017e+07
1.43273e+07
1.42529e+07
1.41785e+07
1.41041e+07
1.40297e+07
1.39553e+07
1.38809e+07
1.38065e+07
1.37321e+07
1.36577e+07
1.35834e+07
1.3509e+07
1.34346e+07
1.33603e+07
1.32859e+07
1.32116e+07
1.31372e+07
1.30629e+07
1.29886e+07
1.29142e+07
1.28398e+07
1.27655e+07
1.26912e+07
1.26168e+07
1.25424e+07
1.24681e+07
1.23937e+07
1.23194e+07
1.2245e+07
1.21707e+07
1.20963e+07
1.2022e+07
1.19476e+07
1.18732e+07
1.17988e+07
1.17244e+07
1.165e+07
1.15756e+07
1.15013e+07
1.14269e+07
1.13524e+07
1.1278e+07
1.12036e+07
1.11292e+07
1.10548e+07
1.09803e+07
1.0906e+07
1.08316e+07
1.07572e+07
1.06828e+07
1.06084e+07
1.05341e+07
1.04597e+07
1.03853e+07
1.03109e+07
1.02365e+07
1.01621e+07
1.00877e+07
1.00133e+07
9.9389e+06
9.86451e+06
9.79012e+06
9.71573e+06
9.64135e+06
9.56698e+06
9.49261e+06
9.41826e+06
9.34391e+06
9.26956e+06
9.1952e+06
9.12084e+06
9.04648e+06
8.97209e+06
8.89768e+06
8.8233e+06
8.74892e+06
8.67452e+06
8.60011e+06
8.5257e+06
8.45127e+06
8.3768e+06
8.30233e+06
8.22786e+06
8.15336e+06
8.07885e+06
8.00438e+06
7.92991e+06
7.85542e+06
7.78093e+06
7.70647e+06
7.632e+06
7.55752e+06
7.48307e+06
7.40866e+06
7.33424e+06
7.25981e+06
7.18538e+06
7.11095e+06
7.03649e+06
6.96203e+06
6.88755e+06
6.81307e+06
6.73858e+06
6.66409e+06
6.58961e+06
6.51511e+06
6.44063e+06
6.36616e+06
6.29168e+06
6.21721e+06
6.14277e+06
6.06832e+06
5.99383e+06
5.91937e+06
5.84491e+06
5.77043e+06
5.69594e+06
5.62147e+06
5.54703e+06
5.47256e+06
5.39809e+06
5.32365e+06
5.24919e+06
5.1747e+06
5.10022e+06
5.02579e+06
4.95134e+06
4.87688e+06
4.80245e+06
4.72804e+06
4.65359e+06
4.5791e+06
4.50465e+06
4.43022e+06
4.35578e+06
4.28134e+06
4.2069e+06
4.13246e+06
4.05801e+06
3.98355e+06
3.90907e+06
3.8346e+06
3.76015e+06
3.68572e+06
3.61128e+06
3.53685e+06
3.46241e+06
3.38794e+06
3.31345e+06
3.23899e+06
3.16453e+06
3.09004e+06
3.01555e+06
2.94111e+06
2.86665e+06
2.79214e+06
2.71765e+06
2.64318e+06
2.56872e+06
2.49421e+06
2.41975e+06
2.34533e+06
2.27087e+06
2.19639e+06
2.12194e+06
2.04755e+06
1.97312e+06
1.89871e+06
1.82441e+06
1.75011e+06
1.6758e+06
1.60154e+06
1.52741e+06
1.45337e+06
1.37944e+06
1.30564e+06
1.23197e+06
1.15846e+06
1.085e+06
1.0116e+06
938040
864186
789621
713751
635446
553622
465073
368385
254077
124536
-49088.9
-241209
-541134
4.24956e+07
3.96058e+07
3.79919e+07
3.63288e+07
3.52682e+07
3.43813e+07
3.37847e+07
3.33238e+07
3.30016e+07
3.27574e+07
3.25781e+07
3.24381e+07
3.23274e+07
3.22349e+07
3.21548e+07
3.20822e+07
3.20144e+07
3.19493e+07
3.18855e+07
3.18223e+07
3.17592e+07
3.16959e+07
3.16323e+07
3.15683e+07
3.1504e+07
3.14393e+07
3.13742e+07
3.13089e+07
3.12434e+07
3.11777e+07
3.11119e+07
3.1046e+07
3.098e+07
3.09139e+07
3.08478e+07
3.07816e+07
3.07154e+07
3.06492e+07
3.0583e+07
3.05167e+07
3.04505e+07
3.03842e+07
3.0318e+07
3.02517e+07
3.01855e+07
3.01192e+07
3.00529e+07
2.99867e+07
2.99204e+07
2.98542e+07
2.97879e+07
2.97216e+07
2.96554e+07
2.95891e+07
2.95229e+07
2.94566e+07
2.93904e+07
2.93241e+07
2.92579e+07
2.91916e+07
2.91253e+07
2.90591e+07
2.89928e+07
2.89265e+07
2.88603e+07
2.8794e+07
2.87277e+07
2.86615e+07
2.85952e+07
2.8529e+07
2.84627e+07
2.83965e+07
2.83302e+07
2.82639e+07
2.81977e+07
2.81314e+07
2.80651e+07
2.79989e+07
2.79326e+07
2.78663e+07
2.78001e+07
2.77338e+07
2.76676e+07
2.76013e+07
2.75351e+07
2.74688e+07
2.74026e+07
2.73363e+07
2.72701e+07
2.72039e+07
2.71376e+07
2.70714e+07
2.70051e+07
2.69389e+07
2.68727e+07
2.68064e+07
2.67402e+07
2.6674e+07
2.66077e+07
2.65415e+07
2.64753e+07
2.64091e+07
2.63428e+07
2.62766e+07
2.62104e+07
2.61442e+07
2.6078e+07
2.60118e+07
2.59455e+07
2.58793e+07
2.58131e+07
2.57469e+07
2.56806e+07
2.56144e+07
2.55482e+07
2.5482e+07
2.54157e+07
2.53495e+07
2.52833e+07
2.5217e+07
2.51508e+07
2.50846e+07
2.50184e+07
2.49521e+07
2.48859e+07
2.48197e+07
2.47535e+07
2.46872e+07
2.4621e+07
2.45548e+07
2.44885e+07
2.44223e+07
2.43561e+07
2.42898e+07
2.42236e+07
2.41574e+07
2.40911e+07
2.40249e+07
2.39586e+07
2.38924e+07
2.38261e+07
2.37599e+07
2.36937e+07
2.36274e+07
2.35612e+07
2.34949e+07
2.34287e+07
2.33625e+07
2.32962e+07
2.323e+07
2.31638e+07
2.30976e+07
2.30313e+07
2.29651e+07
2.28989e+07
2.28326e+07
2.27664e+07
2.27001e+07
2.26339e+07
2.25676e+07
2.25014e+07
2.24351e+07
2.23688e+07
2.23026e+07
2.22364e+07
2.21701e+07
2.21039e+07
2.20377e+07
2.19714e+07
2.19052e+07
2.1839e+07
2.17727e+07
2.17065e+07
2.16403e+07
2.1574e+07
2.15078e+07
2.14415e+07
2.13753e+07
2.1309e+07
2.12428e+07
2.11765e+07
2.11103e+07
2.1044e+07
2.09778e+07
2.09115e+07
2.08453e+07
2.0779e+07
2.07128e+07
2.06465e+07
2.05803e+07
2.0514e+07
2.04478e+07
2.03815e+07
2.03153e+07
2.0249e+07
2.01828e+07
2.01165e+07
2.00503e+07
1.9984e+07
1.99178e+07
1.98516e+07
1.97853e+07
1.97191e+07
1.96529e+07
1.95866e+07
1.95204e+07
1.94542e+07
1.93879e+07
1.93217e+07
1.92555e+07
1.91893e+07
1.91231e+07
1.90569e+07
1.89906e+07
1.89244e+07
1.88582e+07
1.8792e+07
1.87258e+07
1.86596e+07
1.85934e+07
1.85272e+07
1.8461e+07
1.83947e+07
1.83285e+07
1.82623e+07
1.81961e+07
1.81299e+07
1.80636e+07
1.79974e+07
1.79312e+07
1.7865e+07
1.77987e+07
1.77325e+07
1.76663e+07
1.76e+07
1.75338e+07
1.74676e+07
1.74014e+07
1.73351e+07
1.72689e+07
1.72027e+07
1.71364e+07
1.70702e+07
1.7004e+07
1.69378e+07
1.68716e+07
1.68053e+07
1.67391e+07
1.66729e+07
1.66066e+07
1.65404e+07
1.64742e+07
1.6408e+07
1.63417e+07
1.62755e+07
1.62092e+07
1.6143e+07
1.60768e+07
1.60106e+07
1.59443e+07
1.58781e+07
1.58119e+07
1.57457e+07
1.56795e+07
1.56132e+07
1.5547e+07
1.54808e+07
1.54145e+07
1.53483e+07
1.5282e+07
1.52158e+07
1.51495e+07
1.50832e+07
1.5017e+07
1.49507e+07
1.48845e+07
1.48182e+07
1.47519e+07
1.46857e+07
1.46194e+07
1.45531e+07
1.44869e+07
1.44206e+07
1.43543e+07
1.42881e+07
1.42218e+07
1.41556e+07
1.40893e+07
1.4023e+07
1.39568e+07
1.38905e+07
1.38243e+07
1.3758e+07
1.36917e+07
1.36255e+07
1.35592e+07
1.34929e+07
1.34266e+07
1.33603e+07
1.3294e+07
1.32277e+07
1.31614e+07
1.30951e+07
1.30289e+07
1.29626e+07
1.28963e+07
1.283e+07
1.27637e+07
1.26974e+07
1.26311e+07
1.25649e+07
1.24986e+07
1.24323e+07
1.2366e+07
1.22998e+07
1.22335e+07
1.21672e+07
1.2101e+07
1.20347e+07
1.19685e+07
1.19022e+07
1.1836e+07
1.17698e+07
1.17035e+07
1.16373e+07
1.15711e+07
1.15048e+07
1.14386e+07
1.13724e+07
1.13061e+07
1.12399e+07
1.11736e+07
1.11074e+07
1.10412e+07
1.09749e+07
1.09087e+07
1.08425e+07
1.07762e+07
1.071e+07
1.06437e+07
1.05774e+07
1.05111e+07
1.04449e+07
1.03786e+07
1.03123e+07
1.02461e+07
1.01798e+07
1.01135e+07
1.00472e+07
9.9809e+06
9.91461e+06
9.84831e+06
9.78202e+06
9.71576e+06
9.6495e+06
9.58323e+06
9.51695e+06
9.45069e+06
9.38444e+06
9.31817e+06
9.25191e+06
9.18565e+06
9.11937e+06
9.05308e+06
8.9868e+06
8.92052e+06
8.85424e+06
8.78796e+06
8.7217e+06
8.65544e+06
8.58917e+06
8.52292e+06
8.45666e+06
8.39041e+06
8.32417e+06
8.25793e+06
8.19168e+06
8.12543e+06
8.05919e+06
7.99294e+06
7.92666e+06
7.86037e+06
7.7941e+06
7.72782e+06
7.66152e+06
7.59523e+06
7.52894e+06
7.46261e+06
7.39626e+06
7.32992e+06
7.26356e+06
7.19718e+06
7.13082e+06
7.06449e+06
6.99815e+06
6.93178e+06
6.86543e+06
6.79911e+06
6.73277e+06
6.66643e+06
6.60012e+06
6.53383e+06
6.46753e+06
6.40123e+06
6.33493e+06
6.2686e+06
6.20225e+06
6.13589e+06
6.06954e+06
6.00319e+06
5.93684e+06
5.87049e+06
5.80413e+06
5.73777e+06
5.67143e+06
5.60508e+06
5.53872e+06
5.47237e+06
5.40605e+06
5.33971e+06
5.27336e+06
5.20703e+06
5.14071e+06
5.07436e+06
5.00801e+06
4.94168e+06
4.87534e+06
4.80899e+06
4.74267e+06
4.67636e+06
4.61002e+06
4.54366e+06
4.47733e+06
4.41102e+06
4.34468e+06
4.27834e+06
4.21203e+06
4.14573e+06
4.07941e+06
4.01309e+06
3.94677e+06
3.88044e+06
3.8141e+06
3.74779e+06
3.6815e+06
3.61519e+06
3.54885e+06
3.48249e+06
3.41614e+06
3.3498e+06
3.28349e+06
3.21717e+06
3.15083e+06
3.08451e+06
3.01821e+06
2.95187e+06
2.8855e+06
2.81915e+06
2.7528e+06
2.68643e+06
2.62008e+06
2.55376e+06
2.48743e+06
2.42109e+06
2.35475e+06
2.28842e+06
2.22204e+06