/*
 _____     _____     _____ _____ _____ _____    |  High-order Python FOAM
|  |  |___|  _  |_ _|   __|     |  _  |     |   |  Python Version: 3.10
|     | . |   __| | |   __|  |  |     | | | |   |  Code Version: 0.0
|__|__|___|__|  |_  |__|  |_____|__|__|_|_|_|   |  License: GPLv3
                |___|
*/
FoamFile
{
    version     2.0;
    format      ascii;
    class       volScalarField;
    location    "14.0";
    object     p;
}

dimensions      [0 0 0 1 0 0 0]; 

internalField   nonuniform List<scalar>
100
(
356307.5485665344 
105346.54061240978 
-72520.19904220228 
-128767.52807001157 
-143139.48563904644 
-142833.22321728486 
-127582.26364931255 
-70530.36573221137 
110076.64697362485 
350482.90613167593 
743046.8700940908 
403892.11914539227 
119211.60806588455 
-26857.30924373342 
-79245.47052508566 
-78574.25476895596 
-24969.378111169655 
121914.5124189412 
404584.50460099924 
739994.4829897059 
813016.5689314856 
487026.47227592353 
172692.02322475577 
-4690.257973393282 
-77142.86709807922 
-76632.4464477828 
-3317.542943755261 
174231.80366530712 
487679.4874617792 
812496.7895009257 
878879.7582706354 
515284.94242903567 
207693.61682991916 
28152.400469185708 
-48424.11323036321 
-48119.48591059422 
28935.457492948684 
208613.38058303978 
515819.7126491549 
879831.307914691 
901077.1995468097 
531352.3380762537 
224724.94637558487 
48767.50076111824 
-27036.905060812336 
-26874.917831562394 
49195.276657594426 
225266.46933705267 
531937.9129798976 
901949.7383248786 
901975.1710968253 
531616.6311783018 
224740.13361868577 
48665.07254190548 
-27209.755210630086 
-27120.33263772873 
48892.00755769076 
224991.83834509633 
531855.5799628859 
902387.1139503117 
881548.9289937667 
516214.34863159497 
207729.36673038214 
27864.807066323643 
-48941.43243323596 
-48878.00719443705 
27980.30955039991 
207717.8972877916 
515688.54219901946 
881262.8511174069 
817883.6786040114 
488135.41257543897 
172622.61920860418 
-5116.586934188606 
-77964.00735326488 
-77838.64497028192 
-4990.309895341574 
172571.25064172538 
487077.11585105065 
815360.4998234656 
748653.8641710809 
404714.675167584 
119228.04685201363 
-27310.38413719889 
-79902.22707776891 
-79807.76688119431 
-26949.801631532544 
119184.38537864799 
404144.97147736896 
743755.8753316875 
356998.752306823 
107076.92635654981 
-72240.04238822137 
-128681.77563007094 
-143276.48977455433 
-143246.69354994234 
-128647.82122935313 
-72164.9097269419 
105682.90335916122 
356312.6664596562 
)
;

boundaryField
{
	bottom
	{
		type	pressureTraction;
	}
	top
	{
		type	pressureTraction;
	}
	left
	{
		type	fixedValueFromZeroGrad;
	}
	right
	{
		type	fixedValueFromZeroGrad;
	}
	frontAndBackPlanes
	{
		type	empty;
	}
}
