/*
 _____     _____     _____ _____ _____ _____    |  High-order Python FOAM
|  |  |___|  _  |_ _|   __|     |  _  |     |   |  Python Version: 3.10
|     | . |   __| | |   __|  |  |     | | | |   |  Code Version: 0.0
|__|__|___|__|  |_  |__|  |_____|__|__|_|_|_|   |  License: GPLv3
                |___|
*/
FoamFile
{
    version     2.0;
    format      ascii;
    class       volScalarField;
    location    "14.0";
    object     pCorr;
}

dimensions      [0 0 0 1 0 0 0]; 

internalField   nonuniform List<scalar>
100
(
5010.598743837822 
-10904.341084557822 
-11350.48989463942 
-7310.9083959238 
-3660.06992306547 
-3669.2524209898615 
-7302.179202799576 
-11271.042929125893 
-10512.946835283969 
4628.782133806238 
16544.147586404695 
-2360.9390103286105 
-3952.043298156895 
3455.9777119030896 
9358.405787677637 
9363.212823133557 
3491.1868510416375 
-3837.6514288393832 
-2335.798700985835 
16317.545154417621 
18033.80012066982 
3925.229143777755 
5561.981753154343 
15372.270343974536 
22827.911430326785 
22818.999978130367 
15358.138206878963 
5547.973484515153 
3875.36500714241 
17882.807969325273 
23703.930664017033 
11358.56321797861 
15588.305292099762 
26560.29511399845 
34481.77474665529 
34465.38116057106 
26516.807126091026 
15526.010450542628 
11272.245802000274 
23584.265920424703 
27537.12196304732 
16306.379063213684 
21621.689091145687 
33121.077809042305 
41168.47330933284 
41151.82803281384 
33076.165079546874 
21555.811462145488 
16220.08957627532 
27441.45340608635 
27527.832028324177 
16279.820114640353 
21597.256185935425 
33110.34886685901 
41170.40195148844 
41159.97465314125 
33082.50183691193 
21554.528212304092 
16216.856687863896 
27449.63391672446 
23693.983523542618 
11281.532362563572 
15520.08514084974 
26530.47943674438 
34487.753383563926 
34485.42248280296 
26526.837861183245 
15514.199245108124 
11256.004741611563 
23621.571672905804 
18065.69445266244 
3821.900158942525 
5458.947166394752 
15330.976685822261 
22841.929726570204 
22847.967885923834 
15356.283369070223 
5497.890924240356 
3828.589176892858 
17969.262049577705 
16681.40318712037 
-2482.4510542371086 
-4046.7472294020904 
3425.822335531046 
9378.373076312759 
9395.304728630532 
3473.7895514335723 
-3974.651363830539 
-2430.5883865168666 
16498.356107848405 
4962.081757312186 
-10915.22799733199 
-11385.222275113383 
-7305.715967257152 
-3618.3606930947894 
-3620.5939909317785 
-7299.483123954741 
-11350.724890225218 
-10902.757386035672 
4986.692485539388 
)
;

boundaryField
{
	bottom
	{
		type	fixedValue;
		value	uniform 0.0;
	}
	top
	{
		type	fixedValue;
		value	uniform 0.0;
	}
	left
	{
		type	zeroGradient;
	}
	right
	{
		type	zeroGradient;
	}
	frontAndBackPlanes
	{
		type	empty;
	}
}
