/*
 _____     _____     _____ _____ _____ _____    |  High-order Python FOAM
|  |  |___|  _  |_ _|   __|     |  _  |     |   |  Python Version: 3.10
|     | . |   __| | |   __|  |  |     | | | |   |  Code Version: 0.0
|__|__|___|__|  |_  |__|  |_____|__|__|_|_|_|   |  License: GPLv3
                |___|
*/
FoamFile
{
    version     2.0;
    format      ascii;
    class       volScalarField;
    location    "1.0";
    object     T;
}

dimensions      [0 0 0 1 0 0 0]; 

internalField   nonuniform List<scalar>
100
(
0.0525419854131754 
0.05806802648108898 
0.06417329797890345 
0.0709229166654851 
0.07839106948912071 
0.0866247699975288 
0.09574706943085493 
0.10580191783270575 
0.11694504796174107 
0.12923263554335365 
0.15710397826714656 
0.17363070666084868 
0.1919090812874682 
0.21209559298122255 
0.23438944932737354 
0.2590535158083578 
0.2862836997021868 
0.316404557003338 
0.34965099922566195 
0.3864046308115755 
0.26009131206742925 
0.28744485688513266 
0.3176859405122907 
0.3511024037209565 
0.3880294211881867 
0.42884082133695567 
0.4739429034572541 
0.5237871209343778 
0.5788677205094628 
0.6397199364514373 
0.36048007155152195 
0.39838563600263893 
0.44029249387845404 
0.48660483362945 
0.5377858699265247 
0.5943489449493261 
0.6568598728901772 
0.7259454268811179 
0.8022937213271235 
0.8866392726626503 
0.45726672318708894 
0.5053463524183728 
0.5585015639146441 
0.6172469393352513 
0.6821687652286874 
0.7539190659285562 
0.8332140390904837 
0.9208506768893218 
1.017702911424988 
1.1246990733345208 
0.5494849945281503 
0.6072586870438929 
0.671131680285524 
0.7417219067505969 
0.81973581018733 
0.9059544598422862 
1.0012422887059202 
1.1065544450758102 
1.2229416828272082 
1.3515206364984222 
0.6362131199173165 
0.7031046507839648 
0.7770573935192933 
0.8587865866249463 
0.9491112790744747 
1.0489371173606858 
1.1592639630699328 
1.2811979289248514 
1.415958738481863 
1.5648375563117045 
0.7165863808880742 
0.7919285841651544 
0.8752193473665639 
0.9672691975908242 
1.0690015481048023 
1.181435481105826 
1.3056974323330068 
1.443033754217793 
1.5948215968233768 
1.7625167406205193 
0.7897936108507445 
0.8728520100319351 
0.9646370301646376 
1.0660869991462332 
1.1782100443214512 
1.3021275033789586 
1.4390806537908003 
1.590441769215869 
1.757734456388869 
1.9425974229097578 
0.8551160944083331 
0.9450510317019102 
1.0444456541837595 
1.1542898691594452 
1.2756882259185194 
1.409854946048242 
1.5581328190277035 
1.7220074256296627 
1.9031024464104824 
2.1032505134924873 
)
;

boundaryField
{
	bottom
	{
		type	analyticalFixedValue;
		value	uniform 0;
	}
	top
	{
		type	analyticalFixedValue;
		value	uniform 0;
	}
	left
	{
		type	analyticalFixedValue;
		value	uniform 0;
	}
	right
	{
		type	analyticalFixedValue;
		value	uniform 0;
	}
	frontAndBackPlanes
	{
		type	empty;
		value	uniform 0;
	}
}
