/*
 _____     _____     _____ _____ _____ _____    |  High-order Python FOAM
|  |  |___|  _  |_ _|   __|     |  _  |     |   |  Python Version: 3.10
|     | . |   __| | |   __|  |  |     | | | |   |  Code Version: 0.0
|__|__|___|__|  |_  |__|  |_____|__|__|_|_|_|   |  License: GPLv3
                |___|
*/
FoamFile
{
    version     2.0;
    format      ascii;
    class       volVectorField;
    location    "1.0";
    object     U;
}

dimensions      [0 1 0 0 0 0 0]; 

internalField   nonuniform List<vector>
100
(
(0.005413809629398171 0.0021771114031147887 0.0) 
(0.015100904336199572 0.0022752365818714537 0.0) 
(0.024993842461661524 0.001977307456276762 0.0) 
(0.03502748792389183 0.0019617029890898266 0.0) 
(0.04500721711618187 0.002001125596437013 0.0) 
(0.05499196131141464 0.002001184954417184 0.0) 
(0.06497177205833185 0.001961915545644919 0.0) 
(0.07500531558267086 0.001977785889231839 0.0) 
(0.08489874711603758 0.002275876681965552 0.0) 
(0.09458591955551693 0.002177624388197267 0.0) 
(0.008008550681583789 0.0021337160427981794 0.0) 
(0.015100800443202682 0.001477078792966147 0.0) 
(0.025074409365267326 0.0013711338299734301 0.0) 
(0.03504879727820985 0.0014112441838623428 0.0) 
(0.045014323540287705 0.001426129754977839 0.0) 
(0.05498389292370964 0.001426155012967089 0.0) 
(0.06494949999104671 0.0014113021676268455 0.0) 
(0.07492397517872192 0.0013711588134665644 0.0) 
(0.08489902557588459 0.0014772270661602305 0.0) 
(0.0919907650807615 0.0021339421686018727 0.0) 
(0.008525945444125684 0.001415902721892955 0.0) 
(0.015150810138110541 0.001153114930112636 0.0) 
(0.025102845545686887 0.0011102407726636546 0.0) 
(0.03505915581941524 0.0011171272424915554 0.0) 
(0.04501873112285955 0.0011212203370236232 0.0) 
(0.05498139520932636 0.0011212392410881258 0.0) 
(0.06494101049123072 0.0011171861668563545 0.0) 
(0.07489727425277326 0.0011102718552497858 0.0) 
(0.08484917939353825 0.001153093578743149 0.0) 
(0.09147352891503398 0.0014159583810775117 0.0) 
(0.009592200831527046 0.0008994962528253639 0.0) 
(0.015145236218585491 0.0007435702641286467 0.0) 
(0.025099128900713884 0.0006943421052650422 0.0) 
(0.03506068119643897 0.0006906074786400032 0.0) 
(0.045019903563409465 0.0006908071387406055 0.0) 
(0.054980250888209466 0.0006908124778667676 0.0) 
(0.0649394768932385 0.0006906045826140382 0.0) 
(0.0749009531875256 0.0006943132384278673 0.0) 
(0.08485476550340351 0.0007435507827524363 0.0) 
(0.09040729772578857 0.0008995012329562767 0.0) 
(0.010201350415506374 0.000300378602056066 0.0) 
(0.015131334536451053 0.00024954861701083445 0.0) 
(0.025092284276877607 0.00023274593866246898 0.0) 
(0.03505932393118067 0.00023056527805387394 0.0) 
(0.04501991453536242 0.00023016308833875325 0.0) 
(0.05498024906881367 0.00023016464924974808 0.0) 
(0.06494082229898272 0.00023056437076600267 0.0) 
(0.0749077868327897 0.00023274196605431295 0.0) 
(0.08486867578542155 0.0002495447480905732 0.0) 
(0.08979815558246641 0.0003003772957204168 0.0) 
(0.010201339835875265 -0.000302421015714309 0.0) 
(0.015131342548066883 -0.0002497043015025008 0.0) 
(0.025092287767336456 -0.00023272922366798665 0.0) 
(0.035059328980332045 -0.00023055664064991293 0.0) 
(0.04501991933848813 -0.0002301436045905302 0.0) 
(0.05498024699629659 -0.00023014386153699358 0.0) 
(0.06494081895515927 -0.00023054622857388547 0.0) 
(0.07490778149017831 -0.00023271767454598457 0.0) 
(0.0848686660730577 -0.0002496971970373577 0.0) 
(0.08979816484592633 -0.0003024183621857026 0.0) 
(0.009592175447355413 -0.0009013235823446566 0.0) 
(0.01514516455448316 -0.0007437044081934918 0.0) 
(0.02509914550093547 -0.0006943330719470097 0.0) 
(0.035060696504181955 -0.0006906275775601508 0.0) 
(0.045019924080239554 -0.0006908206793937693 0.0) 
(0.054980245816370156 -0.00069080674762195 0.0) 
(0.06493946325348088 -0.0006906004639130316 0.0) 
(0.0749009257932458 -0.0006942985425121635 0.0) 
(0.08485483264288862 -0.0007436844141590007 0.0) 
(0.09040732031077162 -0.0009013287418798511 0.0) 
(0.008525888523884438 -0.0014172471358568583 0.0) 
(0.01515018603964342 -0.0011533237993266794 0.0) 
(0.025102845557536835 -0.0011102386323438823 0.0) 
(0.0350591563628729 -0.0011171092363039454 0.0) 
(0.04501817479910044 -0.0011208877146448213 0.0) 
(0.054981405614490705 -0.0011212823223727588 0.0) 
(0.06494099536785704 -0.001117200731963043 0.0) 
(0.0748972576167203 -0.001110282723909664 0.0) 
(0.08484980068056455 -0.001153305749694559 0.0) 
(0.09147358408396078 -0.0014173046402729877 0.0) 
(0.00800857569805147 -0.002133985374487503 0.0) 
(0.015100780683982658 -0.0014771397330658577 0.0) 
(0.02507442506766286 -0.0013711435877969734 0.0) 
(0.03504877444242234 -0.001411215627128783 0.0) 
(0.045015053776067834 -0.0014265761279564479 0.0) 
(0.05498390660023678 -0.0014261414194441375 0.0) 
(0.06494953056486535 -0.001411308907239984 0.0) 
(0.07492397888911795 -0.0013711806448787524 0.0) 
(0.08489904744623823 -0.001477291369159333 0.0) 
(0.09199074142364856 -0.0021342135325152158 0.0) 
(0.005413788743570553 -0.002177156066972762 0.0) 
(0.015100939361808952 -0.0022752633575795814 0.0) 
(0.02499384331203844 -0.0019773428243411786 0.0) 
(0.03502753660281692 -0.0019617607478209314 0.0) 
(0.045007226335629896 -0.002001157662759396 0.0) 
(0.05499191092729602 -0.0020011774405695156 0.0) 
(0.06497174797906353 -0.001961918352592854 0.0) 
(0.07500532698227065 -0.001977801449966276 0.0) 
(0.08489871599437439 -0.0022758985364161625 0.0) 
(0.09458594335458512 -0.0021776667428265034 0.0) 
)
;

boundaryField
{
	bottom
	{
		type	solidTraction;
		value	nonuniform List<vector>
10
(
(0.004999999999999999 1.9112407442574982e-18 0.0) 
(0.01499999999999998 -8.748920413841608e-20 0.0) 
(0.024999999999999963 -8.605152234077627e-18 0.0) 
(0.03499999999999994 -1.2605215915319227e-17 0.0) 
(0.04499999999999997 -1.9850953471000768e-17 0.0) 
(0.05500000000000002 -1.6238009769807942e-17 0.0) 
(0.06500000000000002 -8.92109597829969e-18 0.0) 
(0.07499999999999996 1.3174793663349272e-17 0.0) 
(0.085 1.3012598077432059e-17 0.0) 
(0.095 1.3232228331888258e-17 0.0) 
)
;
	}
	top
	{
		type	solidTraction;
		value	nonuniform List<vector>
10
(
(0.005000000000000016 -2.2157770173064393e-19 0.0) 
(0.015000000000000008 -1.3407201079753798e-17 0.0) 
(0.024999999999999967 -2.004126382430034e-17 0.0) 
(0.034999999999999976 -1.5580671664906374e-17 0.0) 
(0.045 1.624800551879803e-19 0.0) 
(0.055 2.788591042882561e-18 0.0) 
(0.06500000000000002 -1.6658710331112653e-17 0.0) 
(0.0749999999999999 -1.104459072260014e-17 0.0) 
(0.08499999999999998 8.859192144176566e-18 0.0) 
(0.09500000000000015 3.91684446301541e-18 0.0) 
)
;
	}
	left
	{
		type	fixedValue;
		value	uniform (0.0 0.0 0.0);
	}
	right
	{
		type	fixedValue;
		value	uniform (0.1 0.0 0.0);
	}
	frontAndBackPlanes
	{
		type	empty;
	}
}
