/*
 _____     _____     _____ _____ _____ _____    |  High-order Python FOAM
|  |  |___|  _  |_ _|   __|     |  _  |     |   |  Python Version: 3.10
|     | . |   __| | |   __|  |  |     | | | |   |  Code Version: 0.0
|__|__|___|__|  |_  |__|  |_____|__|__|_|_|_|   |  License: GPLv3
                |___|
*/
FoamFile
{
    version     2.0;
    format      ascii;
    class       volVectorField;
    location    "57.0";
    object     U;
}

dimensions      [0 1 0 0 0 0 0]; 

internalField   nonuniform List<vector>
100
(
(0.016064327444412965 0.03519176935026307 0.0) 
(0.020482132625744012 0.046723733375717016 0.0) 
(0.02857355274428299 0.047227728636961945 0.0) 
(0.037368268949346965 0.049537467055355056 0.0) 
(0.04592334940895479 0.05100643077553324 0.0) 
(0.054366587060473044 0.05099595188285648 0.0) 
(0.06294491571447976 0.049497181920974624 0.0) 
(0.0718153176128986 0.047187201293205874 0.0) 
(0.07973350440224496 0.046295098450929266 0.0) 
(0.08493319657201098 0.03465462475723703 0.0) 
(0.015377656968213239 0.023084898890510255 0.0) 
(0.015212424149306004 0.03597419352216091 0.0) 
(0.02470598394975965 0.04007399786492462 0.0) 
(0.035025769826792216 0.04184807387735685 0.0) 
(0.04514327719169481 0.042826468002145235 0.0) 
(0.05514672129986589 0.042803934783583984 0.0) 
(0.0652822812406417 0.04177145509878541 0.0) 
(0.07560735468828153 0.03989500306942458 0.0) 
(0.08509947112280794 0.03562451734344774 0.0) 
(0.08472192902524948 0.02295570030451844 0.0) 
(0.011333560141141705 0.012791120016581172 0.0) 
(0.011340482433717098 0.024290502626589664 0.0) 
(0.021133346842098808 0.02868984239214868 0.0) 
(0.03287532026350704 0.030574715207768874 0.0) 
(0.04441919885295779 0.03130243316770244 0.0) 
(0.05581203231191008 0.03127309534643978 0.0) 
(0.06734862318491608 0.030480930175259796 0.0) 
(0.07905608551525947 0.02851964902156611 0.0) 
(0.08875522381373846 0.02411189373599582 0.0) 
(0.08875009773793997 0.012743002248643626 0.0) 
(0.011385108670474271 0.007110263828817694 0.0) 
(0.008874561518551165 0.013850213794654304 0.0) 
(0.01878874091514248 0.017195452604840518 0.0) 
(0.031264852143458075 0.01863600721665852 0.0) 
(0.04385055203112782 0.019156541251358284 0.0) 
(0.056309563095353406 0.019131608666515903 0.0) 
(0.06887542755276502 0.018562081007919222 0.0) 
(0.08130368206868896 0.01708889368242991 0.0) 
(0.09116495922935233 0.01375497860428918 0.0) 
(0.08856876142901811 0.0070905789685334845 0.0) 
(0.011524513769449057 0.0022721580303676366 0.0) 
(0.008049724775889689 0.004548117845140801 0.0) 
(0.017679862265613588 0.005714417086786333 0.0) 
(0.03044947792955107 0.006262663849635634 0.0) 
(0.043541767778977426 0.0064523455221821915 0.0) 
(0.056562790185336116 0.006437153054650808 0.0) 
(0.06963394942841741 0.006220485898073857 0.0) 
(0.08236722331641005 0.005656862832395564 0.0) 
(0.09196396823407176 0.004500794536023922 0.0) 
(0.0884872566357317 0.0022525379297674794 0.0) 
(0.011556628299193412 -0.0022222942548207588 0.0) 
(0.008051103328058914 -0.004535603618903463 0.0) 
(0.017682181000253722 -0.005725178151282608 0.0) 
(0.030448000770339424 -0.006281027583939082 0.0) 
(0.04353224048519442 -0.006480895339649987 0.0) 
(0.05654466895340197 -0.006486112538063039 0.0) 
(0.06961055439647917 -0.00629551762948237 0.0) 
(0.08234545594335384 -0.005746502823422216 0.0) 
(0.09195452605103892 -0.00456428362629951 0.0) 
(0.08845294821082442 -0.0022457713040918157 0.0) 
(0.011421545213354197 -0.0070640423336296 0.0) 
(0.008888921872411918 -0.013846206501194424 0.0) 
(0.018802062326759645 -0.017200999023873467 0.0) 
(0.031261716287984 -0.018638248670787855 0.0) 
(0.043822329389989624 -0.01916719411175769 0.0) 
(0.05625431239605719 -0.019164599825166037 0.0) 
(0.0688002898500595 -0.018630633673159806 0.0) 
(0.0812327862156423 -0.017189320739337856 0.0) 
(0.09111689887616344 -0.013848443886633527 0.0) 
(0.08855311276129339 -0.007096120890330796 0.0) 
(0.011466309981234156 -0.012776019097208532 0.0) 
(0.011412772974223453 -0.02430649438945095 0.0) 
(0.02116250129486554 -0.028666898995198902 0.0) 
(0.03287191571534756 -0.030542681672863167 0.0) 
(0.04437441297217142 -0.03127618279564841 0.0) 
(0.05571962585843804 -0.031268980825954806 0.0) 
(0.0672153319244837 -0.030522344356688127 0.0) 
(0.07890813154740067 -0.02863441231928337 0.0) 
(0.08866247152169875 -0.024256725005930246 0.0) 
(0.08856607754546346 -0.012791866137023218 0.0) 
(0.01585261797587969 -0.023178199800586243 0.0) 
(0.015286713571211436 -0.03594528362248744 0.0) 
(0.024739826378335727 -0.0400051225724219 0.0) 
(0.03501401153472881 -0.04176394912372479 0.0) 
(0.045079907773311334 -0.0427445479216412 0.0) 
(0.05502657947993061 -0.04274201999894725 0.0) 
(0.06509826301037104 -0.041748324471568794 0.0) 
(0.07538353138746816 -0.03996949363967083 0.0) 
(0.08482961307106893 -0.03589797528949504 0.0) 
(0.08464458219446329 -0.023080970122452586 0.0) 
(0.01605717001628317 -0.03532733368745958 0.0) 
(0.020554339173875263 -0.046647195534185594 0.0) 
(0.028572841885870923 -0.04712567490065909 0.0) 
(0.037341757193469896 -0.049405026172868106 0.0) 
(0.045854897985675734 -0.05088081744821793 0.0) 
(0.054242803055682846 -0.05087951874145088 0.0) 
(0.06275934138854933 -0.04940213379293326 0.0) 
(0.07152812912361292 -0.04709859571030419 0.0) 
(0.079593687688246 -0.04660633617973291 0.0) 
(0.08397582733428993 -0.03514391458468463 0.0) 
)
;

boundaryField
{
	bottom
	{
		type	solidTraction;
		value	nonuniform List<vector>
10
(
(0.017487196787226208 0.041170592436023834 0.0) 
(0.023321755382150176 0.04925122498448461 0.0) 
(0.03061941073139319 0.051519785129910824 0.0) 
(0.03848993137151232 0.0532541346616281 0.0) 
(0.04629282830971427 0.05478047943745499 0.0) 
(0.05400313630299042 0.0547747509162487 0.0) 
(0.061840641674842496 0.05324228316503725 0.0) 
(0.06974347685910591 0.051443671553358904 0.0) 
(0.07719915669739033 0.04883284467084901 0.0) 
(0.08364176845021964 0.04052426509461133 0.0) 
)
;
	}
	top
	{
		type	solidTraction;
		value	nonuniform List<vector>
10
(
(0.017402999696957338 -0.0412981039952542 0.0) 
(0.023307352113292438 -0.04920688119911889 0.0) 
(0.030613661561425486 -0.051398730309334 0.0) 
(0.03845231852371297 -0.053106432532669404 0.0) 
(0.04621824631729347 -0.054632156877986865 0.0) 
(0.05387566648332079 -0.0546323369187913 0.0) 
(0.06164240644954259 -0.05310401759963367 0.0) 
(0.06948983964842256 -0.05137701172465629 0.0) 
(0.07676542825864761 -0.04912894871677185 0.0) 
(0.08257007928800422 -0.04110135574419699 0.0) 
)
;
	}
	left
	{
		type	fixedValue;
		value	uniform (0.0 0.0 0.0);
	}
	right
	{
		type	fixedValue;
		value	uniform (0.1 0.0 0.0);
	}
	frontAndBackPlanes
	{
		type	empty;
	}
}
