/*
 _____     _____     _____ _____ _____ _____    |  High-order Python FOAM
|  |  |___|  _  |_ _|   __|     |  _  |     |   |  Python Version: 3.10
|     | . |   __| | |   __|  |  |     | | | |   |  Code Version: 0.0
|__|__|___|__|  |_  |__|  |_____|__|__|_|_|_|   |  License: GPLv3
                |___|
*/
FoamFile
{
    version     2.0;
    format      ascii;
    class       volScalarField;
    location    "70.0";
    object     p;
}

dimensions      [0 0 0 1 0 0 0]; 

internalField   nonuniform List<scalar>
100
(
399876.605357661 
-136498.47121766917 
-199364.21535220617 
-151211.87045256505 
-129536.64852159923 
-129799.13608836626 
-151385.40803872864 
-196999.69298504732 
-110210.92901539624 
377697.56745713996 
1304354.0844567718 
389857.7637213256 
154224.52200950557 
171756.14227206487 
195991.36102346375 
196341.4899750126 
173648.56895793005 
161344.78240780003 
393937.738962237 
1293187.1024678694 
1420045.0735942097 
527584.6572287716 
218419.66897186838 
206024.80302588703 
223036.2772489702 
223292.95087840618 
207284.08013352714 
220559.81491786044 
528417.8230059872 
1413816.5297955235 
1581099.302953234 
593169.9790063452 
269570.27981615625 
237551.16527490443 
246968.37043908623 
247029.5803574685 
237809.56899509122 
269787.9685918503 
592086.9224203483 
1579234.6729161507 
1660379.7016563308 
645526.157431614 
305072.2013669671 
266299.1140099091 
271543.7584716129 
271488.59861243115 
266167.1673504884 
304706.5743478106 
644599.107104964 
1658717.3981673878 
1662308.859680547 
645475.970411062 
304672.5685888429 
265956.38160799467 
271293.1555060298 
271227.8791814431 
265827.36809364817 
304268.3482396046 
644364.445076097 
1660292.453310038 
1587013.0929706367 
593075.3457086068 
268194.0606433355 
236593.32859099485 
246256.8745697404 
246273.7140530209 
236674.79428587912 
268082.1230592765 
591480.1851082428 
1583946.439764108 
1431834.8615909752 
526754.6299948848 
215669.71806757874 
204404.17941031107 
221927.7251828098 
222077.5072693728 
205025.03333066453 
216766.29335349548 
525422.6785624375 
1422968.5498523067 
1321579.8520057362 
387202.62770252995 
151563.04872259454 
169985.4509075247 
194850.70803887976 
195064.56089159733 
171070.38912250867 
153358.04411742953 
388399.86896757333 
1304026.2701532487 
398221.0233741073 
-133090.5932212936 
-199584.9269391331 
-150678.2800252212 
-128777.11644394472 
-128907.63480962599 
-151007.38127244677 
-199602.9286150052 
-136624.26163037465 
398807.6794761249 
)
;

boundaryField
{
	bottom
	{
		type	pressureTraction;
	}
	top
	{
		type	pressureTraction;
	}
	left
	{
		type	fixedValueFromZeroGrad;
	}
	right
	{
		type	fixedValueFromZeroGrad;
	}
	frontAndBackPlanes
	{
		type	empty;
	}
}
