/*
 _____     _____     _____ _____ _____ _____    |  High-order Python FOAM
|  |  |___|  _  |_ _|   __|     |  _  |     |   |  Python Version: 3.10
|     | . |   __| | |   __|  |  |     | | | |   |  Code Version: 0.0
|__|__|___|__|  |_  |__|  |_____|__|__|_|_|_|   |  License: GPLv3
                |___|
*/
FoamFile
{
    version     2.0;
    format      ascii;
    class       volScalarField;
    location    "70.0";
    object     pCorr;
}

dimensions      [0 0 0 1 0 0 0]; 

internalField   nonuniform List<scalar>
100
(
-838.909724036609 
-1455.6946669876138 
-381.6161501747074 
-138.82715809213366 
-498.5430788408371 
-500.5489563073955 
-161.22625089980886 
-405.76093644491766 
-1206.987980412512 
-979.4692683131891 
4112.506626721292 
-794.6131372114004 
105.99121631572135 
847.306117730105 
769.4807603513464 
764.7425273715493 
836.0620511384856 
135.59090599913745 
-751.4615862866085 
4048.2071352344824 
3891.859063209493 
-1212.577386212007 
-669.7565163521339 
299.3332170728987 
369.91729749618275 
367.2109227126454 
296.01067540875204 
-665.9851700102147 
-1207.5590773496342 
3817.449804572405 
4226.816250822168 
-1615.460513519753 
-1063.706371295048 
-4.958241533325278 
159.92815384223394 
158.81910706622898 
-7.063231417680207 
-1066.770852173509 
-1628.9723555704331 
4181.751833773165 
4457.401035236566 
-1606.9569339690593 
-1099.4344766579452 
13.54176778224393 
215.57738545172475 
215.0837868132011 
12.532880939389512 
-1102.2978808967625 
-1618.4517421868368 
4418.319960134201 
4467.9671445592985 
-1610.3603892197384 
-1102.6974676547072 
12.290852613957 
215.1951028830602 
214.81157607105536 
12.393111440833305 
-1103.4111277470192 
-1619.6952985030696 
4433.745224017449 
4260.4480016898915 
-1630.8919573107855 
-1076.40015681546 
-8.180597188136732 
158.61461767039876 
158.42436330499456 
-6.610057379199336 
-1071.5314965617672 
-1632.464664396927 
4224.655926313498 
3961.5532585793185 
-1240.2219303312502 
-696.2166852951908 
290.6508426823465 
364.7650255696921 
364.27966163151154 
295.75681946744675 
-675.8654300789419 
-1227.8246598446956 
3893.55989880395 
4246.576432102213 
-838.9005184211406 
78.24411008694233 
833.9299839988555 
758.4372431901675 
757.5852529990162 
839.5458985076684 
104.83800496260588 
-802.6093255027365 
4103.728020883309 
-879.1682447412458 
-1435.9295722673025 
-382.8079976683782 
-129.97273832911551 
-493.6997848499577 
-495.07114716768467 
-131.9771430618361 
-379.9365612895977 
-1453.1884767540118 
-849.6722517074354 
)
;

boundaryField
{
	bottom
	{
		type	fixedValue;
		value	uniform 0.0;
	}
	top
	{
		type	fixedValue;
		value	uniform 0.0;
	}
	left
	{
		type	zeroGradient;
	}
	right
	{
		type	zeroGradient;
	}
	frontAndBackPlanes
	{
		type	empty;
	}
}
