/*
 _____     _____     _____ _____ _____ _____    |  High-order Python FOAM
|  |  |___|  _  |_ _|   __|     |  _  |     |   |  Python Version: 3.10
|     | . |   __| | |   __|  |  |     | | | |   |  Code Version: 0.0
|__|__|___|__|  |_  |__|  |_____|__|__|_|_|_|   |  License: GPLv3
                |___|
*/
FoamFile
{
    version     2.0;
    format      ascii;
    class       volScalarField;
    location    "9.0";
    object     p;
}

dimensions      [0 0 0 1 0 0 0]; 

internalField   nonuniform List<scalar>
100
(
314538.5878166625 
166568.4103113512 
13620.913230217859 
-45184.882655128975 
-69666.34897958685 
-69414.4777365712 
-44313.34327787073 
14924.281364663646 
169231.0334886854 
310743.70622376166 
681562.8592828719 
461272.7965680559 
224993.5815278387 
73947.94563212941 
7591.374511928341 
8092.7186486979335 
75296.57290705355 
226750.1430499344 
461643.80602491484 
679580.095196228 
809271.3901792177 
580290.9178863257 
300116.400686402 
106957.42746199734 
14091.864599308654 
14506.22599300924 
108043.87480161943 
301311.4174606582 
580862.9695453391 
809214.1589797519 
900721.3210205577 
623728.9775738121 
331232.84958999767 
125800.77701776457 
24519.30414690885 
24790.810339853255 
126501.38334572072 
332080.308792582 
624317.3206733917 
901880.1508233729 
931658.7466746067 
641200.8051617272 
340521.0604332012 
132671.03940019442 
29784.310602382408 
29938.833854048687 
133080.83930689274 
341063.5682378075 
641858.6042763537 
932631.3853469361 
932521.8523713455 
641539.5040611521 
340615.73901073163 
132591.54454920566 
29586.17026480101 
29653.870649073666 
132761.79832472367 
340816.36755367904 
641803.1044714414 
933021.4453184619 
903201.3390831058 
624874.4259036195 
331485.45143817377 
125575.24222412297 
23936.074863384216 
23948.88667512522 
125552.06259542031 
331307.91100218426 
624296.9279206884 
903089.2801252927 
813604.6452039815 
581693.7036984272 
300378.02597269893 
106608.16669937377 
13167.518911063918 
13205.156193670962 
106490.33131464756 
300007.2870020542 
580549.8890871855 
811557.8923869331 
686155.160713706 
462462.2599257884 
225288.68251164324 
73532.1442079003 
6791.412849912311 
6766.440794834307 
73552.1474165998 
224841.99084790645 
461663.99601392134 
682334.958867814 
315368.09444259893 
168159.87872757314 
13941.038350086128 
-45206.779491749476 
-70011.39850223898 
-70006.1334465102 
-45274.35521419183 
13797.57437756882 
166780.38538912128 
314651.08538447967 
)
;

boundaryField
{
	bottom
	{
		type	pressureTraction;
	}
	top
	{
		type	pressureTraction;
	}
	left
	{
		type	fixedValueFromZeroGrad;
	}
	right
	{
		type	fixedValueFromZeroGrad;
	}
	frontAndBackPlanes
	{
		type	empty;
	}
}
