/*
 _____     _____     _____ _____ _____ _____    |  High-order Python FOAM
|  |  |___|  _  |_ _|   __|     |  _  |     |   |  Python Version: 3.10
|     | . |   __| | |   __|  |  |     | | | |   |  Code Version: 0.0
|__|__|___|__|  |_  |__|  |_____|__|__|_|_|_|   |  License: GPLv3
                |___|
*/
FoamFile
{
    version     2.0;
    format      ascii;
    class       volVectorField;
    location    "9.0";
    object     U;
}

dimensions      [0 1 0 0 0 0 0]; 

internalField   nonuniform List<vector>
100
(
(0.02048458434790719 0.021105963144488284 0.0) 
(0.02966044808581567 0.04882726035290289 0.0) 
(0.03377264624325471 0.062045374961057824 0.0) 
(0.03979943925409054 0.06893665108459206 0.0) 
(0.046487577875464814 0.07170072903398222 0.0) 
(0.05360143642846926 0.07165737239786187 0.0) 
(0.06030508097894483 0.06880011929041957 0.0) 
(0.0663764804671424 0.0618229136155706 0.0) 
(0.07053732711103228 0.0485130996294062 0.0) 
(0.08001782654789942 0.021070218866288074 0.0) 
(0.010209787758396567 0.01662152296096256 0.0) 
(0.015891458607634218 0.035875262814189006 0.0) 
(0.02463414431331524 0.04853924546121659 0.0) 
(0.03428887777950205 0.05484905865801288 0.0) 
(0.04474012173068679 0.057483387097045466 0.0) 
(0.05540895302605457 0.05744365322946078 0.0) 
(0.06586467279510332 0.054733034337731606 0.0) 
(0.0755152562718208 0.04836413878351025 0.0) 
(0.08422626171712151 0.03570780957464359 0.0) 
(0.08976602650032164 0.016573941970537985 0.0) 
(0.008603160668625636 0.010523161814835548 0.0) 
(0.011306875112608989 0.024465658630722534 0.0) 
(0.019299631692370707 0.03370535603266702 0.0) 
(0.03056351232837863 0.03906481022582329 0.0) 
(0.04339752431603703 0.041347090102720356 0.0) 
(0.056711519895735 0.04131536634216758 0.0) 
(0.06953014574853027 0.03897788513334985 0.0) 
(0.0807641421652219 0.033590272511456146 0.0) 
(0.08871661225085178 0.024375512762464833 0.0) 
(0.09142330742981614 0.010505420000624292 0.0) 
(0.008174826134370186 0.006036365784379707 0.0) 
(0.00933032535931352 0.014129842525014237 0.0) 
(0.016838074358547863 0.019796608644494385 0.0) 
(0.028547078893918467 0.02327129912574289 0.0) 
(0.04262874033372578 0.024846021185116418 0.0) 
(0.057434468582097435 0.024824109236942483 0.0) 
(0.07150067525633287 0.02321302497516403 0.0) 
(0.08318351300079753 0.019724787945742953 0.0) 
(0.09067005271979894 0.014074481914540606 0.0) 
(0.09176898459322916 0.0060199734502464275 0.0) 
(0.008180019219475004 0.0019432799125359067 0.0) 
(0.00866660074328541 0.004629430753486547 0.0) 
(0.015876160831888832 0.006519939965824901 0.0) 
(0.027733341858919233 0.007715398429268774 0.0) 
(0.04230006961219992 0.008267377034662725 0.0) 
(0.05773065289019055 0.008253123319650233 0.0) 
(0.07228623033529563 0.007677722623568628 0.0) 
(0.0841273988754272 0.006472505636940921 0.0) 
(0.09132615014959253 0.004591924316966948 0.0) 
(0.09181289948506238 0.0019266983582867914 0.0) 
(0.00820125558040302 -0.00191433288167699 0.0) 
(0.008671804895721544 -0.004614132951882637 0.0) 
(0.015879957027518987 -0.0065151620422660315 0.0) 
(0.02773298770061529 -0.007719253828668148 0.0) 
(0.04229535639593689 -0.00828691376570766 0.0) 
(0.057722924406007826 -0.008295493426176205 0.0) 
(0.07227708550475063 -0.0077427092232988225 0.0) 
(0.08411865867772907 -0.0065472369068057265 0.0) 
(0.09132228030205335 -0.004647996039699111 0.0) 
(0.09179374011449586 -0.001933644833019259 0.0) 
(0.008196421982759572 -0.006011319086163119 0.0) 
(0.009355378540415127 -0.014123177331983714 0.0) 
(0.016853425425598673 -0.019787909283585006 0.0) 
(0.028546705918319017 -0.023264383427085 0.0) 
(0.04261552160875938 -0.024856102771178078 0.0) 
(0.057412247185793755 -0.024859673634925573 0.0) 
(0.07147302868746425 -0.02327556587678111 0.0) 
(0.08315596319927046 -0.019804728530228806 0.0) 
(0.09064477520459488 -0.01414649402723573 0.0) 
(0.09177276391003877 -0.006032495699344212 0.0) 
(0.008706078257889546 -0.010513020877941948 0.0) 
(0.011377861195148935 -0.02447295153644974 0.0) 
(0.019326926253408313 -0.033675821970107905 0.0) 
(0.030565295764698366 -0.03903869852009107 0.0) 
(0.04338386549956239 -0.04134069559078213 0.0) 
(0.05667674433868168 -0.04133603715315964 0.0) 
(0.06948313089510587 -0.03903673682522278 0.0) 
(0.08071334109292592 -0.033678840684241304 0.0) 
(0.08867266550339839 -0.024472423333408738 0.0) 
(0.09129914579584883 -0.01052331120080947 0.0) 
(0.010497506949518839 -0.016629093549313103 0.0) 
(0.015967549255914464 -0.035842639126474604 0.0) 
(0.02466665289815049 -0.048487214247430875 0.0) 
(0.034293238614447275 -0.05479945311352083 0.0) 
(0.04471748154220506 -0.0574482744164084 0.0) 
(0.05537019469280696 -0.05744662410436373 0.0) 
(0.06580409924535004 -0.054785878690221765 0.0) 
(0.07543363182149665 -0.04847667416677306 0.0) 
(0.08412113374680487 -0.03584372259184908 0.0) 
(0.08977882646959597 -0.016619535549695315 0.0) 
(0.02050470727398313 -0.021126693667611027 0.0) 
(0.02972559581853669 -0.04874222267783685 0.0) 
(0.033802542255324634 -0.061967671389464365 0.0) 
(0.03981376535196141 -0.06885793336074122 0.0) 
(0.04649004316498043 -0.07164344100681863 0.0) 
(0.053588462420307535 -0.07163740375596479 0.0) 
(0.060267876970197094 -0.06884010078626662 0.0) 
(0.06628558573825774 -0.061933631450650686 0.0) 
(0.07038580426616241 -0.048747873455782076 0.0) 
(0.07952817127020709 -0.021101588407583385 0.0) 
)
;

boundaryField
{
	bottom
	{
		type	solidTraction;
		value	nonuniform List<vector>
10
(
(0.025876241981580617 0.025910111104136588 0.0) 
(0.034329079371998514 0.05106281174902482 0.0) 
(0.03887771261315652 0.0680889106686517 0.0) 
(0.04271138712094154 0.0758997654328869 0.0) 
(0.047467087088953565 0.07909455393936286 0.0) 
(0.05259567315956464 0.07904610019095218 0.0) 
(0.05737718019736322 0.07574972140502276 0.0) 
(0.061277305144007616 0.06783235276148199 0.0) 
(0.06600849011853044 0.050793237727000014 0.0) 
(0.07473791651018397 0.02583432570915903 0.0) 
)
;
	}
	top
	{
		type	solidTraction;
		value	nonuniform List<vector>
10
(
(0.025851550398939147 -0.025912326759575513 0.0) 
(0.034346606344601086 -0.05098614036253034 0.0) 
(0.03890997862878963 -0.06799344943449369 0.0) 
(0.042731906757197666 -0.07581112020794889 0.0) 
(0.047480102844630716 -0.07902857869143064 0.0) 
(0.05259372623779465 -0.07902096205862397 0.0) 
(0.05734390057150321 -0.07578834251427184 0.0) 
(0.06117795119249238 -0.06796243816295959 0.0) 
(0.06572375781832743 -0.05097467271828068 0.0) 
(0.07415321282206046 -0.02589066407732425 0.0) 
)
;
	}
	left
	{
		type	fixedValue;
		value	uniform (0.0 0.0 0.0);
	}
	right
	{
		type	fixedValue;
		value	uniform (0.1 0.0 0.0);
	}
	frontAndBackPlanes
	{
		type	empty;
	}
}
