/*
 _____     _____     _____ _____ _____ _____    |  High-order Python FOAM
|  |  |___|  _  |_ _|   __|     |  _  |     |   |  Python Version: 3.10
|     | . |   __| | |   __|  |  |     | | | |   |  Code Version: 0.0
|__|__|___|__|  |_  |__|  |_____|__|__|_|_|_|   |  License: GPLv3
                |___|
*/
FoamFile
{
    version     2.0;
    format      ascii;
    class       volScalarField;
    location    "71.0";
    object     p;
}

dimensions      [0 0 0 1 0 0 0]; 

internalField   nonuniform List<scalar>
100
(
399041.86016480165 
-137899.78767734303 
-199730.45631272806 
-151346.50718466096 
-130024.2604802297 
-130288.52089401103 
-151541.98849728625 
-197390.17764530593 
-111368.90943341985 
376725.98331207957 
1308369.1367793705 
389077.44129890495 
154324.94625470962 
172574.91024251244 
196731.68489429305 
197077.27515924096 
174456.33034462866 
161473.79506303623 
393199.4772918013 
1297139.341200516 
1423832.2491608118 
526388.2882723291 
217761.83915266366 
206311.1150810649 
223386.55681659214 
223640.64959095579 
207567.2319567348 
219905.71024607265 
527226.3613062983 
1417530.2860600173 
1585211.7048091188 
591575.4069521023 
268529.64766848524 
237544.1820639212 
247115.9284849557 
247176.1095659382 
237800.66873431558 
268744.5552919115 
590479.3236605102 
1583302.4385296125 
1664716.3388301863 
643939.3341299047 
303998.27763133694 
266312.6542915112 
271747.52357111336 
271691.91899185075 
266179.8466094373 
303630.09130120015 
643001.2751936634 
1663015.4291463085 
1666655.8152117305 
643885.7941297162 
303595.46611172537 
265968.73212609557 
271496.5674306617 
271430.92973214755 
265839.8869180853 
303190.73288560304 
642765.3467541675 
1664605.643297013 
1591158.3575809912 
591465.5042830613 
267141.0399516342 
236583.30346412174 
246403.1967561166 
246419.83156425296 
236666.296904331 
267033.9933279955 
589869.0761114111 
1588056.3957896878 
1435690.1274342693 
525530.9748684394 
214986.0113200746 
204682.12673255283 
222272.97799584974 
222422.232955661 
205307.89043155228 
216102.61792766498 
524211.4739514634 
1426757.0881774935 
1325726.5067892477 
386378.74212441244 
151636.28635040624 
170791.19837044214 
195580.17082796534 
195793.12576574215 
171881.51587727366 
153457.3674995965 
387611.8171099885 
1308032.674491141 
397346.5084528844 
-134472.52795397228 
-199952.27622528767 
-150804.09151028842 
-129259.98327219443 
-129391.91071984294 
-151135.25763736665 
-199967.45342336653 
-138023.00693605945 
397962.4268608727 
)
;

boundaryField
{
	bottom
	{
		type	pressureTraction;
	}
	top
	{
		type	pressureTraction;
	}
	left
	{
		type	fixedValueFromZeroGrad;
	}
	right
	{
		type	fixedValueFromZeroGrad;
	}
	frontAndBackPlanes
	{
		type	empty;
	}
}
