/*
 _____     _____     _____ _____ _____ _____    |  High-order Python FOAM
|  |  |___|  _  |_ _|   __|     |  _  |     |   |  Python Version: 3.10
|     | . |   __| | |   __|  |  |     | | | |   |  Code Version: 0.0
|__|__|___|__|  |_  |__|  |_____|__|__|_|_|_|   |  License: GPLv3
                |___|
*/
FoamFile
{
    version     2.0;
    format      ascii;
    class       volScalarField;
    location    "71.0";
    object     pCorr;
}

dimensions      [0 0 0 1 0 0 0]; 

internalField   nonuniform List<scalar>
100
(
-834.745192859369 
-1401.3164596738666 
-366.2409605218795 
-134.63673209589936 
-487.61195863047436 
-489.38480564477914 
-156.58045855759906 
-390.48466025859216 
-1157.9804180236085 
-971.584145060368 
4015.0523225986494 
-780.3224224206606 
100.42424520404512 
818.7679704475756 
740.3238708293197 
735.7851842283617 
807.7613866985921 
129.01265523621916 
-738.2616704357303 
3952.2387326466765 
3787.175566602134 
-1196.3689564425051 
-657.8298192047101 
286.31205517786077 
350.27956762192565 
347.6987125495972 
283.15182320763665 
-654.1046717877765 
-1191.4616996889752 
3713.756264493746 
4112.4018558847965 
-1594.572054242807 
-1040.632147670994 
-6.9832109832282345 
147.55804586947255 
146.5292084697107 
-8.900260775647764 
-1043.4132999387691 
-1607.5987598379977 
4067.7656134618674 
4336.637173855429 
-1586.8233017092923 
-1073.9237356301833 
13.540281602115627 
203.76509950049902 
203.32037941961912 
12.679258948879127 
-1076.4830466104393 
-1597.8319113005798 
4298.030978920584 
4346.955531183527 
-1590.1762813458054 
-1077.1024771175457 
12.350518100880869 
203.41192463189847 
203.05055070444539 
12.518824437101003 
-1077.6153540016032 
-1599.0983219295383 
4313.189986974918 
4145.26461035464 
-1609.8414255454818 
-1053.0206917013459 
-10.02512687310756 
146.3221863761986 
146.11751123207523 
-8.497381548127404 
-1048.1297312810436 
-1611.1089968316564 
4109.956025579722 
3855.2658432939897 
-1223.6551264454288 
-683.7067475041144 
277.94732224177073 
345.2528130399408 
344.72568628816913 
282.85710088773703 
-663.6754258304924 
-1211.2046109741407 
3788.538325186787 
4146.654783511544 
-823.8855781174789 
73.23762781170252 
805.7474629174252 
729.4627890855672 
728.5648741448231 
811.1267547649842 
99.32338216695715 
-788.051857584829 
4006.4043378922843 
-874.5149212229303 
-1381.9347326786951 
-367.34928615458983 
-125.81148506720882 
-482.8668282497057 
-484.2759102169539 
-127.8763649198873 
-364.5248083613375 
-1398.7453056848158 
-845.2526152521677 
)
;

boundaryField
{
	bottom
	{
		type	fixedValue;
		value	uniform 0.0;
	}
	top
	{
		type	fixedValue;
		value	uniform 0.0;
	}
	left
	{
		type	zeroGradient;
	}
	right
	{
		type	zeroGradient;
	}
	frontAndBackPlanes
	{
		type	empty;
	}
}
