/*
 _____     _____     _____ _____ _____ _____    |  High-order Python FOAM
|  |  |___|  _  |_ _|   __|     |  _  |     |   |  Python Version: 3.10
|     | . |   __| | |   __|  |  |     | | | |   |  Code Version: 0.0
|__|__|___|__|  |_  |__|  |_____|__|__|_|_|_|   |  License: GPLv3
                |___|
*/
FoamFile
{
    version     2.0;
    format      ascii;
    class       volScalarField;
    location    "35.0";
    object     p;
}

dimensions      [0 0 0 1 0 0 0]; 

internalField   nonuniform List<scalar>
100
(
420899.2416059772 
-31583.272825779455 
-161498.73888962713 
-140325.73234653784 
-110208.413511972 
-110242.50009248515 
-139595.0318812614 
-158768.55350969915 
-17540.081830426632 
406598.44045201887 
1079491.7597407291 
430277.40846197674 
152887.4366112626 
116451.9667571705 
132728.77885868234 
133319.44633347818 
118647.49302707528 
157933.21918039015 
432099.21783880313 
1071881.740289334 
1196133.290494067 
578025.6685574248 
252060.24398210974 
179267.73659879112 
179419.55996461923 
179828.2768864325 
180649.99473976807 
253896.37820263143 
578543.6919774117 
1193028.7640099418 
1334960.2454391008 
655389.4168040651 
321930.14298608695 
229726.33901670302 
218031.08688988612 
218198.16184198964 
230206.89048259976 
322450.3392874699 
655077.4959795403 
1334790.07455471 
1399180.9540097502 
704279.5438192362 
359466.5459121658 
260291.70804017468 
243162.01698804187 
243185.45392136453 
260365.1284386216 
359478.213613854 
704094.8179988359 
1399066.4968934907 
1400580.5309347745 
704400.2695853087 
359262.13261809474 
260051.1025043294 
242944.2472107883 
242925.28326055667 
260012.67654394533 
359078.48799755337 
703910.1062580594 
1399962.34235693 
1339204.777652911 
655950.8236665775 
321263.7077898037 
229051.69484051582 
217408.45875216072 
217411.6158993387 
229033.61396548527 
321003.32158993115 
654645.7443062564 
1337614.5429830735 
1204401.3616698675 
578407.6263063517 
250708.78143289304 
178216.97923877736 
178517.60417610334 
178610.3990308307 
178427.33559076756 
250841.89353519998 
576725.1528912532 
1198724.4804473242 
1090444.797462565 
429668.0603091223 
151644.63948551516 
115400.59090162019 
131987.38424854795 
132125.57790992755 
115978.38901011113 
152088.92060699957 
429357.1362413022 
1079589.2617548846 
420869.9981170344 
-29070.472481369758 
-161543.0399590868 
-140090.5277797104 
-109790.03845961756 
-109930.82676686866 
-140456.49291109925 
-161742.27414501173 
-31695.27725520579 
420392.50540207466 
)
;

boundaryField
{
	bottom
	{
		type	pressureTraction;
	}
	top
	{
		type	pressureTraction;
	}
	left
	{
		type	fixedValueFromZeroGrad;
	}
	right
	{
		type	fixedValueFromZeroGrad;
	}
	frontAndBackPlanes
	{
		type	empty;
	}
}
