/*
 _____     _____     _____ _____ _____ _____    |  High-order Python FOAM
|  |  |___|  _  |_ _|   __|     |  _  |     |   |  Python Version: 3.10
|     | . |   __| | |   __|  |  |     | | | |   |  Code Version: 0.0
|__|__|___|__|  |_  |__|  |_____|__|__|_|_|_|   |  License: GPLv3
                |___|
*/
FoamFile
{
    version     2.0;
    format      ascii;
    class       volVectorField;
    location    "35.0";
    object     U;
}

dimensions      [0 1 0 0 0 0 0]; 

internalField   nonuniform List<vector>
100
(
(0.01723617093920879 0.03263833635458313 0.0) 
(0.021373064346123665 0.04765133423940959 0.0) 
(0.028326483518680962 0.04847908959929375 0.0) 
(0.036984877773636356 0.04997351440586871 0.0) 
(0.045753114266932904 0.050902595180977964 0.0) 
(0.05447991368915241 0.050893880269388264 0.0) 
(0.06326133229085407 0.04993042956760155 0.0) 
(0.07196988724100693 0.048389958378903884 0.0) 
(0.07884283414049074 0.047230412681429745 0.0) 
(0.08362932950655688 0.03228172291903733 0.0) 
(0.014077741993097137 0.021350925300281435 0.0) 
(0.015379016756063327 0.035771633997264934 0.0) 
(0.024488068188140165 0.04055877722567924 0.0) 
(0.034727887876167506 0.04209604122332488 0.0) 
(0.04501845069820673 0.04276841004177394 0.0) 
(0.055221719720801435 0.042745893880727893 0.0) 
(0.06552612098260387 0.042017095899936796 0.0) 
(0.07577215566966708 0.040383276820277335 0.0) 
(0.08487174420286198 0.035481478383166176 0.0) 
(0.08597616856992221 0.021247263385446132 0.0) 
(0.010691400026482318 0.01218218686033465 0.0) 
(0.011565421473886273 0.024040420772638106 0.0) 
(0.02084511026603661 0.02896317755169671 0.0) 
(0.032479398962085 0.030911083603156853 0.0) 
(0.04425439120438186 0.0315388654751761 0.0) 
(0.05593986222544847 0.031510458855314706 0.0) 
(0.06770463775898954 0.030822390204634915 0.0) 
(0.07930380776029654 0.028813327990898828 0.0) 
(0.08850793100270164 0.023893481932314182 0.0) 
(0.08937466602974194 0.012146081342405971 0.0) 
(0.010754301062547223 0.0067677898745784806 0.0) 
(0.009394689035747125 0.013724546666317484 0.0) 
(0.018585411324365513 0.01731175437061742 0.0) 
(0.03083760577163101 0.018859176221931673 0.0) 
(0.04366106056999217 0.0193762485337089 0.0) 
(0.05647254145206014 0.019352680899660222 0.0) 
(0.06927646625935409 0.018791318706999054 0.0) 
(0.08148640429043098 0.017217894317725784 0.0) 
(0.09063398191926618 0.013644199702880458 0.0) 
(0.08919501970780247 0.0067492008037068115 0.0) 
(0.01090076065360941 0.0021620198512273666 0.0) 
(0.008673938550024251 0.004496848399735862 0.0) 
(0.017551229664167826 0.0057435882973804605 0.0) 
(0.03003041154196899 0.006331470870298049 0.0) 
(0.04334756642405097 0.006529060575879962 0.0) 
(0.056737961989867816 0.0065142842304040235 0.0) 
(0.07003634925711422 0.006291040349740026 0.0) 
(0.08248462168379404 0.005689745846581145 0.0) 
(0.09133506657344927 0.004453184653208047 0.0) 
(0.0891041281541698 0.002143440540387737 0.0) 
(0.01092922005240984 -0.0021238155382830837 0.0) 
(0.008676490210871968 -0.004487729494114736 0.0) 
(0.017553466733398106 -0.0057541926624546545 0.0) 
(0.03002865920629992 -0.006349985500917432 0.0) 
(0.043338929987747465 -0.006558965090814349 0.0) 
(0.056722456198603985 -0.006565223700183901 0.0) 
(0.07001701170269437 -0.006367358240575321 0.0) 
(0.0824669114212961 -0.005779219782823044 0.0) 
(0.09132727405972849 -0.0045184714223428625 0.0) 
(0.08907503088125873 -0.0021461255140259455 0.0) 
(0.01078527735268382 -0.006733658327601615 0.0) 
(0.009411889371322191 -0.013723975567972523 0.0) 
(0.018597308773326538 -0.017318126103231014 0.0) 
(0.030833485478241822 -0.018864153475223955 0.0) 
(0.043635791095305465 -0.01939102320691556 0.0) 
(0.056425503179734625 -0.01939024187615119 0.0) 
(0.06921497320710852 -0.018862379142563213 0.0) 
(0.08142945155423756 -0.017315967747983003 0.0) 
(0.09059340592265218 -0.013733597901704092 0.0) 
(0.08918732799884643 -0.0067613029488003285 0.0) 
(0.010810034974759927 -0.012175424993687404 0.0) 
(0.011634587161989991 -0.02405801501161513 0.0) 
(0.02087082551895932 -0.028947464084506994 0.0) 
(0.03247511442838953 -0.030888635215879066 0.0) 
(0.04421538864262698 -0.031522546750668574 0.0) 
(0.0558622129710777 -0.03151653697304975 0.0) 
(0.06759599448808759 -0.030873012955975773 0.0) 
(0.07918734086932383 -0.02892514443417731 0.0) 
(0.08843271250377843 -0.024023944023387367 0.0) 
(0.08921246478513237 -0.012186526768069004 0.0) 
(0.014481431653839137 -0.021417836886706895 0.0) 
(0.015453738959735567 -0.035754981694121835 0.0) 
(0.024519117742291086 -0.04051053560524314 0.0) 
(0.03471871354451307 -0.04203320336279886 0.0) 
(0.04496654927084276 -0.04270488501166549 0.0) 
(0.05512357129497185 -0.042701447104923455 0.0) 
(0.06537849763622464 -0.042016851242400566 0.0) 
(0.07559249909703536 -0.04047908622818499 0.0) 
(0.08465524641547031 -0.03571804859424858 0.0) 
(0.08593620523713498 -0.021351924162678525 0.0) 
(0.01724540807914016 -0.03274110827536157 0.0) 
(0.021441183549481477 -0.04759691492960462 0.0) 
(0.028331064448147023 -0.048406092494073336 0.0) 
(0.03696360521627298 -0.04987167826462227 0.0) 
(0.045698052020284076 -0.050798919359161615 0.0) 
(0.054384359624710055 -0.050795953512815024 0.0) 
(0.06312464120962093 -0.049864301531838066 0.0) 
(0.07176120130566375 -0.04837722056532527 0.0) 
(0.0786911823380476 -0.047560174471543336 0.0) 
(0.08279267447774795 -0.03260931186912147 0.0) 
)
;

boundaryField
{
	bottom
	{
		type	solidTraction;
		value	nonuniform List<vector>
10
(
(0.019333402316131922 0.038753949807212335 0.0) 
(0.024469865796630012 0.04970158083380449 0.0) 
(0.030608165842074753 0.05292768604296191 0.0) 
(0.03813538712792748 0.05387566005041074 0.0) 
(0.046114801621471975 0.0547762032733722 0.0) 
(0.054117945708092544 0.054770635800726226 0.0) 
(0.06211724519978049 0.0538481811733566 0.0) 
(0.0696752464419886 0.05280115622900273 0.0) 
(0.07600161417076931 0.0493177402120437 0.0) 
(0.08166435945521168 0.03830550768108217 0.0) 
)
;
	}
	top
	{
		type	solidTraction;
		value	nonuniform List<vector>
10
(
(0.01927914406706944 -0.038850098612660304 0.0) 
(0.024466719289579542 -0.049670613727496774 0.0) 
(0.03060861768073815 -0.05283898175933145 0.0) 
(0.03810620943490419 -0.05376072770487497 0.0) 
(0.046056334673882704 -0.054652788266574444 0.0) 
(0.05402336727717135 -0.054650770771454825 0.0) 
(0.06197699273189656 -0.053752767797145766 0.0) 
(0.06948484419632386 -0.05281326759164203 0.0) 
(0.0756032920906175 -0.04960682056643093 0.0) 
(0.0807104865258433 -0.03870773875994454 0.0) 
)
;
	}
	left
	{
		type	fixedValue;
		value	uniform (0.0 0.0 0.0);
	}
	right
	{
		type	fixedValue;
		value	uniform (0.1 0.0 0.0);
	}
	frontAndBackPlanes
	{
		type	empty;
	}
}
