/*
 _____     _____     _____ _____ _____ _____    |  High-order Python FOAM
|  |  |___|  _  |_ _|   __|     |  _  |     |   |  Python Version: 3.10
|     | . |   __| | |   __|  |  |     | | | |   |  Code Version: 0.0
|__|__|___|__|  |_  |__|  |_____|__|__|_|_|_|   |  License: GPLv3
                |___|
*/
FoamFile
{
    version     2.0;
    format      ascii;
    class       volScalarField;
    location    "43.0";
    object     p;
}

dimensions      [0 0 0 1 0 0 0]; 

internalField   nonuniform List<scalar>
100
(
419597.6326686318 
-69199.73056765193 
-177796.35692371652 
-144385.4254545815 
-113198.41659524347 
-113310.59099115297 
-143845.31475319344 
-174986.07557374932 
-51708.135453708084 
402864.2880534163 
1149274.2976407413 
418220.75717767084 
152074.3671128179 
136580.7748792026 
159463.27469864747 
160001.50538674704 
138779.74466869104 
157857.6299285694 
420700.2525779283 
1140554.006063712 
1267917.8380120546 
566734.1021989919 
244152.9532534525 
193183.40049542818 
202650.13464024873 
203022.50250384683 
194563.98692573243 
246124.8886578612 
567366.9061941685 
1264027.4131153557 
1415466.407683938 
643997.3052858012 
310712.89859851025 
239034.28992501413 
237427.00907200508 
237558.38826354078 
239441.17099750382 
311138.50140115194 
643470.5411128269 
1414921.1620516544 
1485491.7572855407 
695443.0502141122 
348563.15196791384 
269261.4558963373 
262247.98022475536 
262240.42802355136 
269253.78040610347 
348439.62300035486 
695040.5390056584 
1485028.153956268 
1487033.6444126328 
695504.3702919264 
348287.42640371755 
268978.1775206336 
262015.73671034552 
261981.77528351467 
268906.93049897323 
348028.1383323356 
694839.3625622988 
1486098.6426634248 
1420161.7559215864 
644364.1516097104 
309804.38371375663 
238239.64294141837 
236768.321328746 
236787.30571110078 
238275.6241699024 
309602.77608353656 
642977.9007046659 
1418235.8448868745 
1277170.7843910947 
566765.7169125727 
242352.74077547406 
191923.07544738898 
201693.5400507971 
201830.10491286777 
192313.48761658365 
242795.63544115252 
565177.0792601918 
1270649.9779245318 
1161933.5366591625 
417027.3109151171 
150386.61340216018 
135297.80504989595 
158635.7399791874 
158833.7172550241 
136101.15539040783 
151265.49823890175 
417124.1233258287 
1149257.006983858 
419171.97905199666 
-66465.35570647141 
-177933.16989790535 
-144098.64704626997 
-112655.80663935027 
-112774.18089092636 
-144412.64939883802 
-178048.44405542876 
-69335.46844476106 
418930.7434110112 
)
;

boundaryField
{
	bottom
	{
		type	pressureTraction;
	}
	top
	{
		type	pressureTraction;
	}
	left
	{
		type	fixedValueFromZeroGrad;
	}
	right
	{
		type	fixedValueFromZeroGrad;
	}
	frontAndBackPlanes
	{
		type	empty;
	}
}
