/*
 _____     _____     _____ _____ _____ _____    |  High-order Python FOAM
|  |  |___|  _  |_ _|   __|     |  _  |     |   |  Python Version: 3.10
|     | . |   __| | |   __|  |  |     | | | |   |  Code Version: 0.0
|__|__|___|__|  |_  |__|  |_____|__|__|_|_|_|   |  License: GPLv3
                |___|
*/
FoamFile
{
    version     2.0;
    format      ascii;
    class       volScalarField;
    location    "43.0";
    object     pCorr;
}

dimensions      [0 0 0 1 0 0 0]; 

internalField   nonuniform List<scalar>
100
(
-339.5130063311776 
-4005.3594312328023 
-1520.9933983357037 
-310.293862429781 
-399.72316762282907 
-409.4486334306335 
-337.8891518670667 
-1521.0573111306423 
-3594.693751374646 
-620.6300465130631 
8150.930623120974 
-1181.0085591874692 
206.9415757412288 
2364.7663181319595 
2869.214313378778 
2860.77119731393 
2357.7635794432663 
284.94624430134945 
-1105.269525065181 
8022.243928530903 
8425.674714765575 
-1191.9675319434134 
-784.2440116848338 
1477.4994501308713 
2282.094006161192 
2276.040860426499 
1472.218909744318 
-774.7010703190324 
-1183.2531901716725 
8325.510112360773 
9394.872939536215 
-1357.955982611078 
-1339.976437373321 
797.8752907451803 
1711.7010371421752 
1706.3844160319184 
785.9893250481638 
-1355.9069764522808 
-1389.1267232063055 
9342.10125077995 
10022.1993320782 
-1146.5936585573331 
-1393.3230425597176 
687.0008054172996 
1618.2531395080232 
1613.6341017530772 
674.6321536281482 
-1413.71206145962 
-1178.3791070143413 
9971.674108356057 
10040.246928082022 
-1152.4502596561915 
-1400.4576683210228 
682.9066437544334 
1616.8927814013243 
1613.7302090180292 
675.1898538743076 
-1415.0090424465302 
-1180.1543923890995 
9993.30856708281 
9451.383374474404 
-1378.5325612931676 
-1365.3241814766052 
786.2829450539504 
1708.1990825174585 
1707.9305318781599 
787.015318206447 
-1365.7186143777326 
-1395.6292794625879 
9402.288200315086 
8545.979255443974 
-1230.7430818892371 
-833.2789296695994 
1455.7109139228637 
2275.6170056237734 
2277.938716131563 
1469.695225859473 
-804.5718678301287 
-1226.0420489583425 
8437.898636936925 
8357.930077805737 
-1248.309858473916 
157.48833507353115 
2338.934516572615 
2857.5897865059064 
2861.5557175851195 
2358.368940979744 
201.92657917413354 
-1203.4119409599332 
8135.339455518853 
-388.6237997498473 
-3976.7052572100856 
-1529.5400662910818 
-302.87146509645856 
-386.7064776329476 
-385.3988096092505 
-300.121336467633 
-1523.374839836817 
-4008.8933065786487 
-358.79192258714346 
)
;

boundaryField
{
	bottom
	{
		type	fixedValue;
		value	uniform 0.0;
	}
	top
	{
		type	fixedValue;
		value	uniform 0.0;
	}
	left
	{
		type	zeroGradient;
	}
	right
	{
		type	zeroGradient;
	}
	frontAndBackPlanes
	{
		type	empty;
	}
}
