/*
 _____     _____     _____ _____ _____ _____    |  High-order Python FOAM
|  |  |___|  _  |_ _|   __|     |  _  |     |   |  Python Version: 3.10
|     | . |   __| | |   __|  |  |     | | | |   |  Code Version: 0.0
|__|__|___|__|  |_  |__|  |_____|__|__|_|_|_|   |  License: GPLv3
                |___|
*/
FoamFile
{
    version     2.0;
    format      ascii;
    class       volScalarField;
    location    "63.0";
    object     p;
}

dimensions      [0 0 0 1 0 0 0]; 

internalField   nonuniform List<scalar>
100
(
405800.565220837 
-125038.45883770057 
-196308.02646374653 
-150142.2865314459 
-125828.33425317638 
-126071.4953035537 
-150149.73234214305 
-193778.67268619596 
-100608.8389484548 
384688.7845667127 
1273380.828875065 
395737.8445584677 
153361.91214831985 
165148.7632067253 
189880.67764170247 
190268.30210197665 
167124.35560345766 
160251.33223328483 
399491.6854129365 
1262697.693459638 
1390425.224484254 
536385.3232864713 
223334.1152163004 
203565.88882295732 
219899.48881693307 
220177.90880391956 
204851.88200066212 
225446.5040271101 
537180.6954348974 
1384738.2350237388 
1548891.1915021439 
604852.5551599654 
277460.8227721543 
237448.15164771504 
245446.69882479607 
245517.603169855 
237725.78704075926 
277706.51093551883 
603874.7856388167 
1547350.498685367 
1626399.2261996355 
657113.5821469188 
313254.48607515544 
266105.0892998155 
269640.36517963995 
269589.9191254948 
265983.9336116241 
312916.14438716124 
656277.9401235834 
1625020.2517578206 
1628249.0949415364 
657088.4404490978 
312879.7404581692 
265772.6928479869 
269393.2601129523 
269331.2535679208 
265644.70844745415 
312485.34168983926 
656051.5570616532 
1626481.7439575172 
1554553.041678842 
604869.5591992317 
276180.65583109873 
236517.50097118784 
244746.5603240359 
244764.35872941668 
236586.96937900851 
276035.24044808885 
603292.354555955 
1551746.9627941812 
1401692.3399371293 
535756.6375878372 
220782.78817686863 
202013.84159493135 
218830.15669438816 
218982.1869789427 
202594.17203027706 
221729.80998620915 
534339.3870445798 
1393329.2540465377 
1289615.00076595 
393408.47428857256 
150907.4221899409 
163480.06012295344 
188821.40157002452 
189039.8632016931 
164519.80728074463 
152504.82907674677 
394342.1134694119 
1273117.4212252747 
404436.7169865359 
-121777.02350918506 
-196518.0945839281 
-149670.81643459495 
-125104.97008472287 
-125226.93659675815 
-149987.6260655324 
-196557.45069950176 
-125180.10102804832 
404812.49460428965 
)
;

boundaryField
{
	bottom
	{
		type	pressureTraction;
	}
	top
	{
		type	pressureTraction;
	}
	left
	{
		type	fixedValueFromZeroGrad;
	}
	right
	{
		type	fixedValueFromZeroGrad;
	}
	frontAndBackPlanes
	{
		type	empty;
	}
}
