/*
 _____     _____     _____ _____ _____ _____    |  High-order Python FOAM
|  |  |___|  _  |_ _|   __|     |  _  |     |   |  Python Version: 3.10
|     | . |   __| | |   __|  |  |     | | | |   |  Code Version: 0.0
|__|__|___|__|  |_  |__|  |_____|__|__|_|_|_|   |  License: GPLv3
                |___|
*/
FoamFile
{
    version     2.0;
    format      ascii;
    class       volVectorField;
    location    "63.0";
    object     U;
}

dimensions      [0 1 0 0 0 0 0]; 

internalField   nonuniform List<vector>
100
(
(0.015842655602713085 0.03558663353027863 0.0) 
(0.020360788472278925 0.046591286176090804 0.0) 
(0.028596437617472673 0.047103414157551954 0.0) 
(0.03738890166168375 0.04949785086790304 0.0) 
(0.04592821119175622 0.05098701115497416 0.0) 
(0.05437080877107043 0.050975396630928795 0.0) 
(0.06293582815772668 0.04945584273957257 0.0) 
(0.0718108269029201 0.04707124608579657 0.0) 
(0.07985430488507701 0.046165106139952575 0.0) 
(0.08517583648733976 0.035014973197566704 0.0) 
(0.015590870934578312 0.023411163892447823 0.0) 
(0.015153324579394558 0.03600463126918301 0.0) 
(0.024726953372158692 0.040012235947465724 0.0) 
(0.03505952196569699 0.04181183750922592 0.0) 
(0.04515629534532312 0.0428145112005189 0.0) 
(0.055142070618040495 0.04279155037259939 0.0) 
(0.06525792257159115 0.04173491704138214 0.0) 
(0.0755957599566041 0.039832763917986874 0.0) 
(0.08516955846700969 0.03564427820398438 0.0) 
(0.0845178849988175 0.023277111757590226 0.0) 
(0.011439643358340293 0.01289350684465494 0.0) 
(0.011278446528628161 0.024324984488303298 0.0) 
(0.02116956924658916 0.028637463109059975 0.0) 
(0.03292909903106712 0.03051164567785768 0.0) 
(0.044439955884972945 0.031249378236771125 0.0) 
(0.05579758772076031 0.031219784253686895 0.0) 
(0.06730163422170497 0.030416906830219453 0.0) 
(0.0790269440784612 0.028463695414164596 0.0) 
(0.08882111532720222 0.024140617447019706 0.0) 
(0.08864746619094852 0.012842879404877784 0.0) 
(0.011480177884166382 0.007168744194303198 0.0) 
(0.008760374942271046 0.01386291213703867 0.0) 
(0.01881753042892814 0.017168655430827618 0.0) 
(0.03132868447371239 0.018593440001217116 0.0) 
(0.04387684146710995 0.01911470071550392 0.0) 
(0.05628783865815684 0.019089559818559573 0.0) 
(0.06881605903331389 0.01851854782413996 0.0) 
(0.08127828838759844 0.017059981804032728 0.0) 
(0.09128077877657653 0.013765104407339518 0.0) 
(0.0884752872955959 0.00714904888834059 0.0) 
(0.011617068647676825 0.00229045202627219 0.0) 
(0.007917976359722873 0.004554005666676238 0.0) 
(0.017699530154309005 0.005706996055225922 0.0) 
(0.03051539771188094 0.0062497862052894645 0.0) 
(0.04357001736188538 0.00643869622696605 0.0) 
(0.05653785825704272 0.006423469670170182 0.0) 
(0.06957085489664784 0.006207425668929023 0.0) 
(0.08234926904608413 0.005648978472293152 0.0) 
(0.09209616005837472 0.004506234258891173 0.0) 
(0.08839613383447398 0.002270842543011366 0.0) 
(0.011649725221620583 -0.002238112005128163 0.0) 
(0.007919065812944527 -0.004540929501660954 0.0) 
(0.01770183752955135 -0.005718006114037473 0.0) 
(0.03051395612379622 -0.0062684032105226216 0.0) 
(0.04356031871864948 -0.006467305749481049 0.0) 
(0.056519297728310304 -0.006472306203078192 0.0) 
(0.06954679683586852 -0.006282252306524628 0.0) 
(0.0823268530882939 -0.005738414151898953 0.0) 
(0.09208651003994299 -0.004568929160346404 0.0) 
(0.0883609265870238 -0.002261644100120381 0.0) 
(0.011517647137222944 -0.0071199860219225124 0.0) 
(0.008773943598627928 -0.013858418674778427 0.0) 
(0.018831077197393783 -0.01717436183605352 0.0) 
(0.0313256743120542 -0.01859550913800879 0.0) 
(0.043848048738028424 -0.0191249725104749 0.0) 
(0.05623121886790712 -0.019122017249103028 0.0) 
(0.06873868632614688 -0.018586676745149137 0.0) 
(0.08120508619343089 -0.01716059063617256 0.0) 
(0.09123164392964048 -0.013858909630607406 0.0) 
(0.08845779783925149 -0.007152819666615089 0.0) 
(0.011574680332426113 -0.012876489891389554 0.0) 
(0.011350965338351749 -0.024341043471630183 0.0) 
(0.02119923627244068 -0.02861346452821448 0.0) 
(0.03292575377358549 -0.030478225719189588 0.0) 
(0.04439403505995211 -0.031221736898965798 0.0) 
(0.0557027114527772 -0.031214255145721136 0.0) 
(0.06716430427816608 -0.030456769324528683 0.0) 
(0.07887357386850963 -0.02857866684690508 0.0) 
(0.08872539549066344 -0.024287853521130973 0.0) 
(0.0884598323512306 -0.012893301761014763 0.0) 
(0.016079073490850845 -0.023510392184636564 0.0) 
(0.015226812378667949 -0.03597364984030704 0.0) 
(0.024761199109739573 -0.03993993711121339 0.0) 
(0.035047214931745736 -0.04172408709814254 0.0) 
(0.04509081731736309 -0.04272948377303887 0.0) 
(0.055018125788309856 -0.0427269513570108 0.0) 
(0.06506762858116996 -0.041708165777855015 0.0) 
(0.07536423543100178 -0.03990298260257051 0.0) 
(0.08489018435048235 -0.03592401506525351 0.0) 
(0.08443280387661291 -0.023406079892334303 0.0) 
(0.01583185838840571 -0.03572889189286876 0.0) 
(0.020434031159213523 -0.0465111434025657 0.0) 
(0.028594532699756876 -0.04699682467771887 0.0) 
(0.0373611576769477 -0.04936011649869899 0.0) 
(0.04585725708373182 -0.05085727555756485 0.0) 
(0.05424246136937195 -0.05085610495701793 0.0) 
(0.06274170037880811 -0.049357510065057064 0.0) 
(0.07150761208176276 -0.04696912973951152 0.0) 
(0.07971693229445788 -0.046468897683938304 0.0) 
(0.08419959781070788 -0.03553496994067898 0.0) 
)
;

boundaryField
{
	bottom
	{
		type	solidTraction;
		value	nonuniform List<vector>
10
(
(0.017163187763130302 0.041537484005673184 0.0) 
(0.023147249637547655 0.04920727185323761 0.0) 
(0.03060878888251155 0.051375115700251904 0.0) 
(0.03850342276843624 0.05319436195861986 0.0) 
(0.04629761376521537 0.054753927765119725 0.0) 
(0.054008441235881735 0.054747159452711414 0.0) 
(0.06184102822774693 0.0531831223316513 0.0) 
(0.06976989674220033 0.05130813185146954 0.0) 
(0.07738169030248243 0.048784888287881745 0.0) 
(0.0839857884831264 0.0408542904051275 0.0) 
)
;
	}
	top
	{
		type	solidTraction;
		value	nonuniform List<vector>
10
(
(0.017072955435990578 -0.041671482005407184 0.0) 
(0.023130901121707986 -0.04916115630220928 0.0) 
(0.03060179621513191 -0.051248944916041136 0.0) 
(0.03846396604564937 -0.05304100196436928 0.0) 
(0.046220114338799176 -0.05460103043902116 0.0) 
(0.05387551374218781 -0.05460140966379146 0.0) 
(0.06163208892586407 -0.05303895908459697 0.0) 
(0.0695030965409415 -0.051226961390291835 0.0) 
(0.07694225727258451 -0.049079721646772136 0.0) 
(0.08289649335495405 -0.04146364767997744 0.0) 
)
;
	}
	left
	{
		type	fixedValue;
		value	uniform (0.0 0.0 0.0);
	}
	right
	{
		type	fixedValue;
		value	uniform (0.1 0.0 0.0);
	}
	frontAndBackPlanes
	{
		type	empty;
	}
}
