/*
 _____     _____     _____ _____ _____ _____    |  High-order Python FOAM
|  |  |___|  _  |_ _|   __|     |  _  |     |   |  Python Version: 3.10
|     | . |   __| | |   __|  |  |     | | | |   |  Code Version: 0.0
|__|__|___|__|  |_  |__|  |_____|__|__|_|_|_|   |  License: GPLv3
                |___|
*/
FoamFile
{
    version     2.0;
    format      ascii;
    class       volScalarField;
    location    "46.0";
    object     p;
}

dimensions      [0 0 0 1 0 0 0]; 

internalField   nonuniform List<scalar>
100
(
418331.2085431353 
-80346.61337672749 
-181900.60479041204 
-145361.25069391407 
-114732.32713760379 
-114872.02138666552 
-144905.40898560165 
-179101.56089834604 
-61657.839912045354 
400792.28556670935 
1172423.9966229103 
414639.0363805423 
152450.33113346013 
142706.65767563737 
166665.11866137607 
167177.90172946505 
144880.10565454306 
158452.29189249978 
417339.36090003094 
1163337.1086193593 
1291465.3824881692 
562575.3185270708 
241107.62939886726 
196238.08038909204 
207639.95777583314 
207994.80189044742 
197602.6608620058 
243106.22153028514 
563234.0558971061 
1287279.8200909605 
1441424.6870378354 
638883.0172314191 
305658.064808621 
239815.0735230738 
240504.02342586918 
240621.01779558157 
240189.98101146432 
306040.3523654039 
638267.7353328824 
1440722.3995639004 
1513040.362908796 
690702.3436233738 
343162.2698259005 
269588.814293393 
264954.6825316497 
264934.9638944376 
269548.49173341546 
342983.5815934486 
690210.1067792207 
1512426.6853871185 
1514636.2341736534 
690748.2964006681 
342867.7771863702 
269295.3603716909 
264719.48650712124 
264676.9510676634 
269203.4299839221 
342568.5638690628 
690004.0153381996 
1513561.2720137567 
1446288.4579383384 
639193.3110448238 
304681.0890998025 
238991.63621669938 
239837.71647569028 
239855.30523756286 
239028.41793166223 
304477.4599330165 
637757.0741515649 
1444214.883147324 
1301072.5922794843 
562498.02036889 
239171.85872620065 
194920.85759108016 
206666.84296779 
206808.1234480239 
195346.9982664363 
239694.54921243366 
560921.6944527124 
1294232.332299355 
1185691.7065109974 
413253.02813174564 
150625.0843900641 
141353.52788106402 
165804.49793222774 
166010.87405839624 
142206.4889885897 
151627.50822296657 
413479.39507639565 
1172361.1049343725 
417758.92680181924 
-77525.072473177 
-182057.40754033354 
-145048.96872116768 
-114152.53854508643 
-114268.68390684134 
-145358.74579159028 
-182158.61012437355 
-80491.68712981965 
417607.4768082713 
)
;

boundaryField
{
	bottom
	{
		type	pressureTraction;
	}
	top
	{
		type	pressureTraction;
	}
	left
	{
		type	fixedValueFromZeroGrad;
	}
	right
	{
		type	fixedValueFromZeroGrad;
	}
	frontAndBackPlanes
	{
		type	empty;
	}
}
