/*
 _____     _____     _____ _____ _____ _____    |  High-order Python FOAM
|  |  |___|  _  |_ _|   __|     |  _  |     |   |  Python Version: 3.10
|     | . |   __| | |   __|  |  |     | | | |   |  Code Version: 0.0
|__|__|___|__|  |_  |__|  |_____|__|__|_|_|_|   |  License: GPLv3
                |___|
*/
FoamFile
{
    version     2.0;
    format      ascii;
    class       volVectorField;
    location    "46.0";
    object     U;
}

dimensions      [0 1 0 0 0 0 0]; 

internalField   nonuniform List<vector>
100
(
(0.016562456933357804 0.034187553285600504 0.0) 
(0.02080746943644763 0.047038268388798446 0.0) 
(0.028491896010476338 0.04755726838508444 0.0) 
(0.03726662736232746 0.04956588637139928 0.0) 
(0.045884462892490555 0.05088678971387898 0.0) 
(0.05438350903971701 0.0508784206147708 0.0) 
(0.06301932832362146 0.04952791519797763 0.0) 
(0.07185627944992581 0.04749776572676367 0.0) 
(0.0794089189351933 0.04660948330866052 0.0) 
(0.08438245474972363 0.03372914984452589 0.0) 
(0.014872124642607667 0.02234298436607376 0.0) 
(0.01533930353499971 0.03588194379139809 0.0) 
(0.024663743866182374 0.040213753805915686 0.0) 
(0.03494650448040291 0.04189136869727708 0.0) 
(0.04511068586816864 0.042768782955488915 0.0) 
(0.05515927620399871 0.04274700103747331 0.0) 
(0.06533934608319189 0.04181525471119041 0.0) 
(0.07562755525357763 0.040036860889777356 0.0) 
(0.08494695902714351 0.03555793760325666 0.0) 
(0.08520721072877736 0.022224913016169287 0.0) 
(0.011097281919240837 0.012549483997863074 0.0) 
(0.011497524021697743 0.02420129190581775 0.0) 
(0.02107339490732127 0.028803407938900728 0.0) 
(0.03276276442668291 0.030705179758390783 0.0) 
(0.04437294700369775 0.03139457777836721 0.0) 
(0.05584339660064932 0.03136589892739137 0.0) 
(0.06744504441724433 0.030614029912397374 0.0) 
(0.079099345816513 0.02864225855260055 0.0) 
(0.0885889630588953 0.02403655736526893 0.0) 
(0.08897881643909024 0.01250692149044638 0.0) 
(0.011172039245760804 0.006977220294936188 0.0) 
(0.009162512977855338 0.013817465371569353 0.0) 
(0.018763447161304007 0.017256779511776763 0.0) 
(0.03113913883227045 0.018733907894971154 0.0) 
(0.04379435369366833 0.019249724353022517 0.0) 
(0.05635520325247958 0.019225432571220686 0.0) 
(0.0689906885799564 0.018662692378979783 0.0) 
(0.08132080347095182 0.01715577609681908 0.0) 
(0.09087274397167289 0.013728752214680043 0.0) 
(0.08877871458054429 0.00695796721225511 0.0) 
(0.011320658861848291 0.0022304407777215523 0.0) 
(0.008384153248963517 0.004534251735099265 0.0) 
(0.01768439449335659 0.005732225282591512 0.0) 
(0.030325110690823862 0.006293867484138865 0.0) 
(0.04348294340940803 0.006485105112207714 0.0) 
(0.05661419992408577 0.0064701069652455855 0.0) 
(0.06975188720063505 0.00625245973150727 0.0) 
(0.08235852312371263 0.005676260955694016 0.0) 
(0.09162799486609452 0.004488509425946587 0.0) 
(0.08868803803180665 0.002211221519443466 0.0) 
(0.011351517187208863 -0.0021862625409861296 0.0) 
(0.00838613275715886 -0.004523912490213771 0.0) 
(0.01768676121902753 -0.005743779466159986 0.0) 
(0.03032359742312162 -0.006313245053310244 0.0) 
(0.043473866688915126 -0.006515178521834269 0.0) 
(0.05659720129137783 -0.0065208446248736585 0.0) 
(0.06973016986834979 -0.006329016517282305 0.0) 
(0.08233839697193067 -0.005766830462435791 0.0) 
(0.09161915609242768 -0.004553688090851252 0.0) 
(0.08865567769261957 -0.0022093380986284838 0.0) 
(0.011205978791169705 -0.006936779169037122 0.0) 
(0.009178473208544069 -0.01381545376360557 0.0) 
(0.018776361187467106 -0.01726334548162865 0.0) 
(0.03113583048783747 -0.01873813890439649 0.0) 
(0.043767598236402465 -0.019262950465086165 0.0) 
(0.0563034497563062 -0.019261192932679177 0.0) 
(0.06892118144727179 -0.018733249861673795 0.0) 
(0.08125562922559731 -0.01725617551832813 0.0) 
(0.09082751242177767 -0.013821309670132306 0.0) 
(0.08876689224622275 -0.006967029351390807 0.0) 
(0.011224683933138194 -0.012538493775954208 0.0) 
(0.011569032855449017 -0.024218080960756807 0.0) 
(0.021101463352825804 -0.028784115031078382 0.0) 
(0.03275938901274099 -0.030677896998880832 0.0) 
(0.04433096915975132 -0.03137320902541467 0.0) 
(0.055757237164083116 -0.031366702510814116 0.0) 
(0.0673218872625305 -0.030660149620145554 0.0) 
(0.07896449538540236 -0.028756812985584183 0.0) 
(0.08850337980249896 -0.024175859311280478 0.0) 
(0.0888030960548554 -0.012552312181154952 0.0) 
(0.01531694437576451 -0.022423947235294533 0.0) 
(0.01541479790981261 -0.035858412968637676 0.0) 
(0.024696859607234823 -0.04015403345563231 0.0) 
(0.03493630807799838 -0.041816988592318714 0.0) 
(0.04505255311365862 -0.0426954182370141 0.0) 
(0.05504850609439017 -0.042692905463707506 0.0) 
(0.06517055280764872 -0.041802125451398546 0.0) 
(0.07542213155599127 -0.040121585270477114 0.0) 
(0.08469941404175171 -0.03581663658004034 0.0) 
(0.08514682908136398 -0.022341690207959626 0.0) 
(0.016563090518526294 -0.03430854420024051 0.0) 
(0.020878113462964868 -0.046971040718294034 0.0) 
(0.028494194982950246 -0.047467617355378605 0.0) 
(0.03724307842440875 -0.049447223049107016 0.0) 
(0.045822048491600195 -0.05077162001656205 0.0) 
(0.05427130012256498 -0.05077009655774256 0.0) 
(0.06285429532687031 -0.049443858390693395 0.0) 
(0.07160418885751507 -0.04744201703575837 0.0) 
(0.07926325291429097 -0.04693370340527991 0.0) 
(0.08347230843372581 -0.03414827872438429 0.0) 
)
;

boundaryField
{
	bottom
	{
		type	solidTraction;
		value	nonuniform List<vector>
10
(
(0.018234827941070675 0.040215942041942794 0.0) 
(0.023749312320071006 0.049342016355082216 0.0) 
(0.030612912700015666 0.051882201354922865 0.0) 
(0.03839153744043153 0.05331584119579235 0.0) 
(0.04624835138830003 0.05465707484443267 0.0) 
(0.05402328075388752 0.054653013603904566 0.0) 
(0.06190692562490212 0.05330095427218472 0.0) 
(0.06971511052336703 0.05178599060594769 0.0) 
(0.07675181032961342 0.048936726410053734 0.0) 
(0.08284273122950202 0.039655007990436586 0.0) 
)
;
	}
	top
	{
		type	solidTraction;
		value	nonuniform List<vector>
10
(
(0.018164110990431557 -0.04032940456037462 0.0) 
(0.02374004095219861 -0.04930307074326872 0.0) 
(0.03061049691252918 -0.05177491049152989 0.0) 
(0.038358290193456906 -0.05318278655258781 0.0) 
(0.046180872847996 -0.0545203375229687 0.0) 
(0.05390940159564039 -0.05452014935543132 0.0) 
(0.061733579263341644 -0.05317970217621318 0.0) 
(0.0694898970503004 -0.051753960496342816 0.0) 
(0.07633166322637014 -0.04923323533215035 0.0) 
(0.08181602283650119 -0.04015725975804088 0.0) 
)
;
	}
	left
	{
		type	fixedValue;
		value	uniform (0.0 0.0 0.0);
	}
	right
	{
		type	fixedValue;
		value	uniform (0.1 0.0 0.0);
	}
	frontAndBackPlanes
	{
		type	empty;
	}
}
