/*
 _____     _____     _____ _____ _____ _____    |  High-order Python FOAM
|  |  |___|  _  |_ _|   __|     |  _  |     |   |  Python Version: 3.10
|     | . |   __| | |   __|  |  |     | | | |   |  Code Version: 0.0
|__|__|___|__|  |_  |__|  |_____|__|__|_|_|_|   |  License: GPLv3
                |___|
*/
FoamFile
{
    version     2.0;
    format      ascii;
    class       volScalarField;
    location    "56.0";
    object     p;
}

dimensions      [0 0 0 1 0 0 0]; 

internalField   nonuniform List<scalar>
100
(
411639.6762705321 
-110008.19608199292 
-191955.9026938145 
-148667.76328909444 
-121550.23612162599 
-121760.8719358738 
-148490.70516929662 
-189282.53848507238 
-87724.39222078082 
391811.16266633896 
1236844.170486355 
402627.82595242193 
152513.02687110036 
156980.73966339458 
181934.4296153116 
182369.004402122 
159044.62767064816 
159103.8366168469 
405994.0888646519 
1226734.096984121 
1354845.3906639689 
546187.0520316798 
229175.1671367922 
200424.16647022447 
215458.99124917318 
215765.3514466087 
201742.53806097736 
231252.05845529612 
546934.9169885119 
1349745.6574003054 
1510148.6057708524 
617665.638856547 
286847.3496523757 
237298.13799134942 
243066.83271391134 
243152.2553230197 
237605.88235955505 
287136.2040227761 
616817.5506620773 
1508947.0676271825 
1585488.503837986 
669734.355786257 
323053.3283854711 
266001.3626852648 
266947.92841966124 
266905.6441703039 
265901.00227904064 
322760.7552111482 
669016.326155604 
1584412.344328124 
1587245.8345025936 
669737.2996777436 
322708.70818173885 
265683.32139231433 
266706.1567345755 
266648.98077939625 
265561.068467913 
322336.56287786376 
668797.6051624136 
1585747.562126803 
1515517.7214000167 
617802.2636188944 
285681.30484505283 
236406.40192313268 
242382.55575689758 
242399.94428513863 
236460.55900019658 
285503.6059640849 
616260.5420385235 
1512994.092520811 
1365503.3505041918 
545777.5930961542 
226855.69205807592 
198959.7489186885 
214434.2344368169 
214584.56054672686 
199485.41871058723 
227634.99315347773 
544280.0831714608 
1357709.609920706 
1251958.1180086923 
400661.9149874443 
150296.69439967212 
155433.24689010947 
180962.62660363235 
181180.82167953873 
156410.24945913936 
151667.18805498732 
401310.7280457096 
1236653.3170408441 
410589.6158058407 
-106912.493888241 
-192149.07074987332 
-148259.08591176034 
-120871.85719508 
-120988.67607656523 
-148569.31316147602 
-192213.43445316228 
-110160.22580937587 
410746.99149546743 
)
;

boundaryField
{
	bottom
	{
		type	pressureTraction;
	}
	top
	{
		type	pressureTraction;
	}
	left
	{
		type	fixedValueFromZeroGrad;
	}
	right
	{
		type	fixedValueFromZeroGrad;
	}
	frontAndBackPlanes
	{
		type	empty;
	}
}
