/*
 _____     _____     _____ _____ _____ _____    |  High-order Python FOAM
|  |  |___|  _  |_ _|   __|     |  _  |     |   |  Python Version: 3.10
|     | . |   __| | |   __|  |  |     | | | |   |  Code Version: 0.0
|__|__|___|__|  |_  |__|  |_____|__|__|_|_|_|   |  License: GPLv3
                |___|
*/
FoamFile
{
    version     2.0;
    format      ascii;
    class       volScalarField;
    location    "56.0";
    object     pCorr;
}

dimensions      [0 0 0 1 0 0 0]; 

internalField   nonuniform List<scalar>
100
(
-794.2222971430087 
-2501.8131088759164 
-778.1964674432742 
-271.3490061630594 
-670.1566194547781 
-675.9103157085325 
-298.70631448662965 
-795.7751082908947 
-2170.5300326268516 
-997.4690181702956 
5721.5230990514665 
-1103.6924906108811 
63.57635863184537 
1259.6547102016186 
1267.1119832155018 
1259.800607257371 
1247.4083962148804 
113.22148019852185 
-1042.8451059793806 
5631.188214969624 
5590.375024427467 
-1542.3458554354334 
-1004.6372208322739 
421.9553901262659 
674.298531471998 
669.9175653825837 
417.30885601587937 
-998.2767639014723 
-1534.3283154627998 
5503.103505316345 
6071.146175794918 
-2001.8639733608002 
-1586.222562441088 
-94.51318091246509 
304.01189508044905 
301.55539509594854 
-99.62872791422092 
-1593.472843477073 
-2022.196031847945 
6022.062055331547 
6405.659817655165 
-1976.0883532402183 
-1669.966172495216 
-131.51649563519453 
322.2798051154346 
320.789113574323 
-135.4104185850143 
-1678.1268498065783 
-1995.023274529964 
6361.233190618522 
6420.136015286109 
-1980.275274922925 
-1674.6300133101022 
-133.79808357864178 
321.50509440286146 
320.64659051143735 
-135.12100834644565 
-1679.0075706422042 
-1996.126627972969 
6380.2626654386395 
6116.757153987168 
-2019.2920094111535 
-1603.8155754181007 
-100.76055946168583 
301.78969462497383 
301.9655656920049 
-98.33237706188645 
-1599.4583750939312 
-2026.1170541052682 
6074.6538456281905 
5685.291834165808 
-1574.774630617385 
-1040.253211603973 
408.2977027080193 
668.1967637141488 
668.8315304581868 
417.38186063902845 
-1014.9207356362194 
-1564.1852628364863 
5598.06072553149 
5892.678943788002 
-1158.5519716430988 
27.21473096888484 
1241.254608334215 
1254.9381815834956 
1255.4922750579656 
1251.8735773884455 
62.00682313774794 
-1116.5475628831728 
5710.27384958644 
-840.7130052477346 
-2476.4167176118285 
-781.0477989207088 
-262.0458857475984 
-662.3879168973817 
-662.7965602906885 
-262.4862588438074 
-777.2694825518449 
-2501.0295445070888 
-809.3072411093814 
)
;

boundaryField
{
	bottom
	{
		type	fixedValue;
		value	uniform 0.0;
	}
	top
	{
		type	fixedValue;
		value	uniform 0.0;
	}
	left
	{
		type	zeroGradient;
	}
	right
	{
		type	zeroGradient;
	}
	frontAndBackPlanes
	{
		type	empty;
	}
}
