/*
 _____     _____     _____ _____ _____ _____    |  High-order Python FOAM
|  |  |___|  _  |_ _|   __|     |  _  |     |   |  Python Version: 3.10
|     | . |   __| | |   __|  |  |     | | | |   |  Code Version: 0.0
|__|__|___|__|  |_  |__|  |_____|__|__|_|_|_|   |  License: GPLv3
                |___|
*/
FoamFile
{
    version     2.0;
    format      ascii;
    class       volScalarField;
    location    "69.0";
    object     pCorr;
}

dimensions      [0 0 0 1 0 0 0]; 

internalField   nonuniform List<scalar>
100
(
-842.4714305103446 
-1512.1759190085477 
-397.90426860491164 
-143.05789429328468 
-509.20438531075456 
-511.4509558127203 
-165.9103906364732 
-421.9165873635926 
-1258.022479708972 
-986.842871195134 
4212.529521789023 
-808.9991727867239 
111.89122391215847 
877.4040181630157 
800.7479078285936 
795.806426660255 
865.9282279940677 
142.54093111037147 
-764.7372067294273 
4146.699346194791 
3999.9341174904484 
-1228.0104084226884 
-680.9523628839639 
314.17278831597423 
392.0879311569556 
389.2521235270674 
310.68440158868253 
-677.1312300868398 
-1222.8776371979957 
3924.5339392790506 
4345.375852109583 
-1634.9152088738024 
-1085.785814146063 
-1.0427107229657686 
174.94471935109652 
173.7505135785586 
-3.347027752888466 
-1089.146661327982 
-1648.924209445593 
4299.889385942653 
4582.768592038966 
-1625.3093042575474 
-1123.7961792159394 
15.487868882427328 
230.08828819553526 
229.5413093107507 
14.31891681130086 
-1126.9807385096078 
-1637.3058692055004 
4543.213365977676 
4593.584967912149 
-1628.7659522978702 
-1127.1482752268778 
14.170448079357227 
229.6728845321586 
229.26464767597872 
14.199097749708185 
-1128.075419667694 
-1638.5273037663494 
4558.9053158223305 
4379.784058852961 
-1650.512262115393 
-1098.7987971431185 
-4.46087237252637 
173.5431165054255 
173.36791968112672 
-2.8472773856952607 
-1093.9569866407735 
-1652.4020660486713 
4343.508207979812 
4071.253871399333 
-1256.0185755076482 
-708.0166191854969 
305.15157227627714 
386.7989125558817 
386.3593522460755 
310.4635125215394 
-687.340868245975 
-1243.6828393536653 
4001.9800691133432 
4349.091924157284 
-854.0204666501539 
83.56544335574377 
863.6545505486835 
789.5147497472099 
788.7147760612279 
869.5213479656172 
110.6792774166009 
-817.2732275654854 
4203.616548793101 
-883.2125062300446 
-1492.0261875788237 
-399.1897011889388 
-134.18401249433427 
-504.2615650326395 
-505.5910110458906 
-136.1204307524395 
-396.2674215203019 
-1509.7407848034845 
-853.4912527265387 
)
;

boundaryField
{
	bottom
	{
		type	fixedValue;
		value	uniform 0.0;
	}
	top
	{
		type	fixedValue;
		value	uniform 0.0;
	}
	left
	{
		type	zeroGradient;
	}
	right
	{
		type	zeroGradient;
	}
	frontAndBackPlanes
	{
		type	empty;
	}
}
