/*
 _____     _____     _____ _____ _____ _____    |  High-order Python FOAM
|  |  |___|  _  |_ _|   __|     |  _  |     |   |  Python Version: 3.10
|     | . |   __| | |   __|  |  |     | | | |   |  Code Version: 0.0
|__|__|___|__|  |_  |__|  |_____|__|__|_|_|_|   |  License: GPLv3
                |___|
*/
FoamFile
{
    version     2.0;
    format      ascii;
    class       volScalarField;
    location    "36.0";
    object     p;
}

dimensions      [0 0 0 1 0 0 0]; 

internalField   nonuniform List<scalar>
100
(
420984.2566909495 
-37087.506222610195 
-164241.17774855587 
-141238.13925993827 
-110747.38817575398 
-110790.57120344171 
-140525.38877646602 
-161488.4021214108 
-22592.6417601388 
406355.01095968514 
1088649.216577273 
428155.34443296684 
152025.28978825393 
118608.89047835926 
136033.02867861828 
136620.47810273682 
120816.03877128653 
157181.48114546406 
430067.84336311015 
1080890.8852263072 
1205189.6544272262 
575789.8682240971 
250101.30167671433 
180438.07151452854 
182108.34211360905 
182515.65502316185 
181829.47394143714 
251967.16718973598 
576332.4356506565 
1201992.8089703184 
1344976.8947004958 
653060.1107575577 
319490.77773079724 
230222.79992397048 
220129.17388500719 
220294.23762008842 
230701.1440047202 
320009.16374564887 
652731.7509934505 
1344771.4665841383 
1409895.8837519102 
702262.5094119867 
357056.4505822778 
260718.61216273534 
245181.5418905271 
245203.35765083367 
260788.2978432458 
357060.63963351113 
702061.619946752 
1409750.9262812831 
1411313.4840449335 
702374.6430558643 
356841.73783988605 
260471.88575617655 
244961.9678372562 
244943.80802236527 
260436.81627825586 
356659.21168528363 
701874.4662050572 
1410668.7069979203 
1349279.0441670767 
653594.666247591 
318790.36532069946 
229531.08436241563 
219502.33119172367 
219510.90324448992 
229529.02193204372 
318549.5340990416 
652290.9690019813 
1347658.1940057545 
1213585.7609286627 
576124.6510656175 
248688.53089656195 
179358.82612401384 
181201.19074603263 
181303.47275843087 
179602.4449407365 
248873.20306333184 
574463.3316097185 
1207807.85802942 
1099823.414255831 
427468.8852784387 
150722.7102978546 
117527.76023744425 
135283.92876351206 
135433.52790179994 
118143.55743143478 
151232.01485090793 
427215.23556356697 
1088734.8795318864 
420905.40257114545 
-34546.828363689696 
-164298.76715923808 
-140995.951045081 
-110309.61040959443 
-110446.15311306505 
-141351.83518018783 
-164483.41475593124 
-37201.43691788206 
420456.3580859053 
)
;

boundaryField
{
	bottom
	{
		type	pressureTraction;
	}
	top
	{
		type	pressureTraction;
	}
	left
	{
		type	fixedValueFromZeroGrad;
	}
	right
	{
		type	fixedValueFromZeroGrad;
	}
	frontAndBackPlanes
	{
		type	empty;
	}
}
