/*
 _____     _____     _____ _____ _____ _____    |  High-order Python FOAM
|  |  |___|  _  |_ _|   __|     |  _  |     |   |  Python Version: 3.10
|     | . |   __| | |   __|  |  |     | | | |   |  Code Version: 0.0
|__|__|___|__|  |_  |__|  |_____|__|__|_|_|_|   |  License: GPLv3
                |___|
*/
FoamFile
{
    version     2.0;
    format      ascii;
    class       volScalarField;
    location    "36.0";
    object     pCorr;
}

dimensions      [0 0 0 1 0 0 0]; 

internalField   nonuniform List<scalar>
100
(
85.01508497231124 
-5504.233396830737 
-2742.438858928727 
-912.4069134004308 
-538.9746637819813 
-548.0711109565647 
-930.3568952046022 
-2719.8486117116327 
-5052.559929712166 
-243.42949233370533 
9157.456836543868 
-2122.0640290098795 
-862.1468230086723 
2156.9237211887557 
3304.249819935936 
3301.0317692586323 
2168.5457442112556 
-751.7380349260834 
-2031.374475692993 
9009.144936973118 
9056.363933159384 
-2235.8003333277043 
-1958.9423053953979 
1170.33491573743 
2688.782148989814 
2687.3781367293427 
1179.479201669067 
-1929.2110128954425 
-2211.2563267552655 
8964.044960376632 
10016.649261394941 
-2329.3060465073904 
-2439.3652552897006 
496.46090726746326 
2098.086995121054 
2096.075778098764 
494.2535221204505 
-2441.1755418210796 
-2345.7449860898155 
9981.392029428322 
10714.929742159904 
-2017.0344072495352 
-2410.0953298879804 
426.90412256065775 
2019.5249024852235 
2017.9037294691266 
423.1694046241787 
-2417.5739803428605 
-2033.1980520839381 
10684.42938779248 
10732.95311015888 
-2025.6265294444613 
-2420.394778208715 
420.78325184713907 
2017.7206264679073 
2018.5247618086096 
424.139734310535 
-2419.276312269721 
-2035.6400530021665 
10706.36464099016 
10074.266514165765 
-2356.157418986393 
-2473.3424691042064 
479.3895218998063 
2093.872439562967 
2099.287345151221 
495.407966558449 
-2453.7874908895537 
-2354.7753042750705 
10043.651022681004 
9184.399258795158 
-2282.975240734255 
-2020.2505363310954 
1141.8468852364692 
2683.586569929286 
2693.073727600167 
1175.1093499689405 
-1968.6904718681337 
-2261.8212815347083 
9083.377582095842 
9378.61679326606 
-2199.1750306836266 
-921.9291876605851 
2127.1693358240555 
3296.5445149640927 
3307.9499918723905 
2165.1684213236394 
-856.9057560916543 
-2141.900677735213 
9145.617777001768 
35.40445411107309 
-5476.355882319939 
-2755.7272001512774 
-905.4232653706094 
-519.5719499768816 
-515.3263461963932 
-895.342269088585 
-2741.140610919495 
-5506.159662676269 
63.85268383065958 
)
;

boundaryField
{
	bottom
	{
		type	fixedValue;
		value	uniform 0.0;
	}
	top
	{
		type	fixedValue;
		value	uniform 0.0;
	}
	left
	{
		type	zeroGradient;
	}
	right
	{
		type	zeroGradient;
	}
	frontAndBackPlanes
	{
		type	empty;
	}
}
