/*
 _____     _____     _____ _____ _____ _____    |  High-order Python FOAM
|  |  |___|  _  |_ _|   __|     |  _  |     |   |  Python Version: 3.10
|     | . |   __| | |   __|  |  |     | | | |   |  Code Version: 0.0
|__|__|___|__|  |_  |__|  |_____|__|__|_|_|_|   |  License: GPLv3
                |___|
*/
FoamFile
{
    version     2.0;
    format      ascii;
    class       volVectorField;
    location    "36.0";
    object     U;
}

dimensions      [0 1 0 0 0 0 0]; 

internalField   nonuniform List<vector>
100
(
(0.017149165037308314 0.03281151565046901 0.0) 
(0.021275483908646763 0.047554582847960436 0.0) 
(0.02831675749105865 0.04830279817245038 0.0) 
(0.03700109302818057 0.04983317143182806 0.0) 
(0.045763802480529046 0.050801058000822664 0.0) 
(0.05447345774590832 0.05079262998427522 0.0) 
(0.06324960065558365 0.04979125433307545 0.0) 
(0.07198484246060467 0.048217205079176 0.0) 
(0.07894033147670793 0.04713266570429287 0.0) 
(0.08372441019917427 0.032444386258271854 0.0) 
(0.014156988088091096 0.02144246441387784 0.0) 
(0.015367903791904086 0.03575158377189155 0.0) 
(0.024499140251894737 0.04046108371670991 0.0) 
(0.03474740388090929 0.041995852825590096 0.0) 
(0.04502751536466063 0.042683750722632106 0.0) 
(0.05521618360257404 0.04266147626221724 0.0) 
(0.06551021509331353 0.04191758318128724 0.0) 
(0.07576446249895498 0.040285772935988604 0.0) 
(0.08488656031530216 0.03545814988353747 0.0) 
(0.08589950984505604 0.021337393849754777 0.0) 
(0.010727857388622586 0.012210714668292775 0.0) 
(0.011555157275457886 0.024030509053176403 0.0) 
(0.02086891961258575 0.02890295204416807 0.0) 
(0.03251135340849173 0.030833241862958168 0.0) 
(0.044268401672633316 0.03146161570085607 0.0) 
(0.05592870284964456 0.03143327418821991 0.0) 
(0.06767562028855074 0.030744517124296857 0.0) 
(0.0792827650835002 0.028752197522937385 0.0) 
(0.08851970031064992 0.0238819654289216 0.0) 
(0.08933917140383275 0.012174064249245706 0.0) 
(0.010792922874358271 0.006782416172211839 0.0) 
(0.009369022761069257 0.013717184362635719 0.0) 
(0.018605961752418854 0.017279591498379536 0.0) 
(0.03087338859718101 0.018812241637303915 0.0) 
(0.04367743500992525 0.019325252584699824 0.0) 
(0.05645847664869271 0.01930166875810969 0.0) 
(0.06924287651510369 0.018744191504582976 0.0) 
(0.08146753915503117 0.01718519133982767 0.0) 
(0.09066053159031826 0.013636155738387723 0.0) 
(0.08915661684866458 0.0067638369286172955 0.0) 
(0.010939481979916309 0.0021666288346790983 0.0) 
(0.008642671628309792 0.004494741894208465 0.0) 
(0.017567642697973552 0.0057333377849182856 0.0) 
(0.030065903645771386 0.006316024984372325 0.0) 
(0.04336435758999283 0.006511625748727295 0.0) 
(0.05672307949304492 0.006496878127960288 0.0) 
(0.07000252256299591 0.006275628737820514 0.0) 
(0.08246936952329072 0.005679446807601001 0.0) 
(0.09136686481147999 0.004451005067633592 0.0) 
(0.08906571455169544 0.0021480435060766637 0.0) 
(0.0109681113797514 -0.0021280405024973045 0.0) 
(0.008645139161734558 -0.004485943678564792 0.0) 
(0.01756986851086607 -0.005744638115852868 0.0) 
(0.030064165047516224 -0.006335287096668845 0.0) 
(0.043355675232172014 -0.006542163414868081 0.0) 
(0.056707420330792534 -0.006548302622463312 0.0) 
(0.06998294054610178 -0.006352345584983657 0.0) 
(0.08245141538229595 -0.005769283686711533 0.0) 
(0.09135896604194244 -0.004516438997396554 0.0) 
(0.08903634878728507 -0.0021503714655633746 0.0) 
(0.010824148284487464 -0.006747871210273204 0.0) 
(0.009385996520965301 -0.013716929838206087 0.0) 
(0.018617880817359555 -0.01728663466557872 0.0) 
(0.030869319460401706 -0.018817868285518978 0.0) 
(0.043652007533721886 -0.01934052974581821 0.0) 
(0.05641094399540392 -0.019339570730072624 0.0) 
(0.0691805504099926 -0.01881557918955605 0.0) 
(0.08140975274571936 -0.017283742200348704 0.0) 
(0.09061951133550616 -0.01372600034368059 0.0) 
(0.0891485044516587 -0.006775716144917715 0.0) 
(0.010847065369697382 -0.012203778136852333 0.0) 
(0.011624351623118674 -0.024048538020013867 0.0) 
(0.020894756035930145 -0.028887694763946332 0.0) 
(0.032507112837850016 -0.03081117040394296 0.0) 
(0.04422905574070934 -0.03144553002327311 0.0) 
(0.05585013744743246 -0.03143936689936106 0.0) 
(0.06756543776891717 -0.030795043190870112 0.0) 
(0.07916440726842627 -0.028864524099257344 0.0) 
(0.08844346536222078 -0.024013407523371895 0.0) 
(0.08917587496308367 -0.01221506492176015 0.0) 
(0.014564270518332723 -0.021511024407994534 0.0) 
(0.015442554579426117 -0.035735016663510276 0.0) 
(0.024530304591091723 -0.04041275075829145 0.0) 
(0.034738054028906847 -0.041932936793531154 0.0) 
(0.044974906457677405 -0.042620135322472365 0.0) 
(0.055116622274928195 -0.04261661784668052 0.0) 
(0.06536030642885875 -0.041916294322747204 0.0) 
(0.07558210349198163 -0.04038061270593597 0.0) 
(0.08466689742804183 -0.0356970949647409 0.0) 
(0.08585742875844386 -0.02144337289042542 0.0) 
(0.017157779917687587 -0.032916415348454874 0.0) 
(0.021343951050325626 -0.047500025437578294 0.0) 
(0.028321097423640904 -0.04822949806958568 0.0) 
(0.036979428473260204 -0.04973100891823205 0.0) 
(0.045707668825972 -0.05069731322759594 0.0) 
(0.05437578156476622 -0.05069422488148248 0.0) 
(0.06310970078809336 -0.04972333483833252 0.0) 
(0.0717717759099837 -0.04820006480655614 0.0) 
(0.07878932001062011 -0.04746226114542347 0.0) 
(0.08288023411197583 -0.032781473429152046 0.0) 
)
;

boundaryField
{
	bottom
	{
		type	solidTraction;
		value	nonuniform List<vector>
10
(
(0.019192114646769877 0.03892170386878235 0.0) 
(0.024352071111401474 0.04962919374698441 0.0) 
(0.030571715199744817 0.052733428261839035 0.0) 
(0.038142943562755584 0.05370946877943823 0.0) 
(0.04612360161760966 0.05465207578534751 0.0) 
(0.054113815852978614 0.054646943523778184 0.0) 
(0.06211476074612946 0.053683946255651024 0.0) 
(0.0697161639119775 0.052610466842328625 0.0) 
(0.07612225781519893 0.04924306101945968 0.0) 
(0.08181370959968148 0.038461511186695205 0.0) 
)
;
	}
	top
	{
		type	solidTraction;
		value	nonuniform List<vector>
10
(
(0.019136648438720743 -0.039020047071579814 0.0) 
(0.02434856536468534 -0.04959859338882361 0.0) 
(0.030571899467052254 -0.05264436833506647 0.0) 
(0.03811314442659919 -0.053594188721535554 0.0) 
(0.04606378843730218 -0.05452846611861205 0.0) 
(0.054016746798931974 -0.05452633626567953 0.0) 
(0.0619707843296015 -0.05358593609611373 0.0) 
(0.06952221524870428 -0.05261809020257223 0.0) 
(0.07572174595820272 -0.049533210589363115 0.0) 
(0.0808523766755116 -0.03887420604632073 0.0) 
)
;
	}
	left
	{
		type	fixedValue;
		value	uniform (0.0 0.0 0.0);
	}
	right
	{
		type	fixedValue;
		value	uniform (0.1 0.0 0.0);
	}
	frontAndBackPlanes
	{
		type	empty;
	}
}
