/*
 _____     _____     _____ _____ _____ _____    |  High-order Python FOAM
|  |  |___|  _  |_ _|   __|     |  _  |     |   |  Python Version: 3.10
|     | . |   __| | |   __|  |  |     | | | |   |  Code Version: 0.0
|__|__|___|__|  |_  |__|  |_____|__|__|_|_|_|   |  License: GPLv3
                |___|
*/
FoamFile
{
    version     2.0;
    format      ascii;
    class       volScalarField;
    location    "81.0";
    object     p;
}

dimensions      [0 0 0 1 0 0 0]; 

internalField   nonuniform List<scalar>
100
(
391040.71066560363 
-149318.30301956157 
-202700.40666847661 
-152466.70859499677 
-134268.35619549165 
-134539.2833402004 
-152856.89303674773 
-200602.0312183372 
-120631.95009496502 
367541.8803746306 
1343696.1351950578 
382052.1225422223 
155092.53434912695 
179469.07893382196 
202883.30403242068 
203193.45433632052 
181253.90944385456 
162479.0633528654 
386539.0866821778 
1331910.8504744086 
1456626.6138681564 
515434.45314959344 
211922.052733859 
208715.18886508534 
226173.41771055074 
226407.68752977095 
209947.59825524842 
214101.04203736025 
516316.0620370329 
1449644.2269312677 
1620840.85851665 
576977.3866828716 
259469.91242673347 
237578.16230333474 
248244.29027066453 
248297.59813246876 
237823.49789410306 
259669.83351630205 
575774.9767866166 
1618509.7846235526 
1702309.4151674993 
629418.9108687139 
294740.31009702256 
266645.5313467188 
273452.54234094784 
273394.3111635401 
266509.85415531177 
294359.76666009723 
628394.1036445072 
1700248.3366680557 
1704339.3095894777 
629334.3199680818 
294309.65486079885 
266292.3017886474 
273199.1274221587 
273130.5669081162 
266167.19547786366 
293908.09185605333 
628144.232598936 
1701975.8245112577 
1627076.3167458712 
576723.6208501557 
257972.11317899133 
236594.5030206428 
247522.10987661922 
247535.92076344896 
236690.17306587406 
257913.83837822702 
575128.2650619784 
1623647.1719522632 
1469083.0072439748 
514323.56103006867 
208916.16028966286 
207016.72777222111 
225015.03851214258 
225157.31595447887 
207682.21203557696 
210215.8090461677 
513129.14863814873 
1459548.2465894981 
1362240.414128802 
378955.945984009 
152159.78447700955 
177571.8003612524 
201632.25487822335 
201834.6329830472 
178705.11995854118 
154215.53406976504 
380521.56798928865 
1343279.503810102 
388975.5261384578 
-145717.5405412208 
-202930.32546439194 
-151839.23464654753 
-133461.63021149012 
-133609.0098679998 
-152193.22489914641 
-202919.51455074866 
-149413.61891002808 
389869.53999822645 
)
;

boundaryField
{
	bottom
	{
		type	pressureTraction;
	}
	top
	{
		type	pressureTraction;
	}
	left
	{
		type	fixedValueFromZeroGrad;
	}
	right
	{
		type	fixedValueFromZeroGrad;
	}
	frontAndBackPlanes
	{
		type	empty;
	}
}
