/*
 _____     _____     _____ _____ _____ _____    |  High-order Python FOAM
|  |  |___|  _  |_ _|   __|     |  _  |     |   |  Python Version: 3.10
|     | . |   __| | |   __|  |  |     | | | |   |  Code Version: 0.0
|__|__|___|__|  |_  |__|  |_____|__|__|_|_|_|   |  License: GPLv3
                |___|
*/
FoamFile
{
    version     2.0;
    format      ascii;
    class       volScalarField;
    location    "84.0";
    object     pCorr;
}

dimensions      [0 0 0 1 0 0 0]; 

internalField   nonuniform List<scalar>
100
(
-737.1601385622425 
-848.9217104960239 
-224.8589469148606 
-85.14163828671887 
-341.4393672537677 
-340.8937072025595 
-101.37526056494369 
-248.1379956450633 
-668.0502839663998 
-833.3262565810201 
2956.8981616244987 
-603.1761376211248 
48.52457719926447 
543.0534668276146 
480.8363020067633 
478.4622151815727 
535.2264733730036 
66.89289731961314 
-573.4629704994327 
2909.870102138198 
2683.6770934227047 
-956.0367670531687 
-490.17872544397716 
192.63212170371136 
207.51873478946368 
206.2112032057421 
191.18593925079173 
-486.86425808678797 
-952.2877394955199 
2622.8323932361336 
2920.6013686402007 
-1271.7659690715955 
-739.4196086188192 
17.940096329634436 
80.27461962548178 
79.92071315440094 
17.614669010097312 
-739.5407624692647 
-1279.5334564309503 
2881.9510040118694 
3085.665131696777 
-1262.4035786225566 
-745.130062984813 
54.47939253999306 
134.70578233458838 
134.58523334257495 
54.67487283883877 
-745.0305453924421 
-1268.3878844976425 
3053.1582949432764 
3093.1540682233804 
-1265.1789903903632 
-747.4361026047326 
53.83888782970412 
134.58142171946636 
134.32282356674455 
54.30373438439869 
-746.3564063016746 
-1269.9349744232852 
3065.0251841575027 
2944.587547741186 
-1284.8721233576916 
-748.5387692127028 
16.50610506959148 
79.67148395512199 
79.29187484054417 
17.400411800884477 
-743.8701176292559 
-1283.3651262493713 
2915.264392426214 
2733.4257634996247 
-978.7467353781909 
-509.6459490645316 
187.3148676192866 
203.76291201823798 
202.91153060273638 
190.20523428458043 
-493.64609823177847 
-966.5389399543207 
2681.4378252310103 
3059.2454107929816 
-637.9607852292525 
27.557866069597356 
533.6873535983486 
472.13819814366974 
470.97594272736706 
536.8072985546025 
47.702178383095635 
-608.3046309319348 
2949.596482415038 
-770.2892688363534 
-834.1400716377304 
-225.41248279349549 
-77.20033523284813 
-337.73134039473706 
-339.36476860251275 
-79.63579055433198 
-223.11273373393044 
-846.0426004676187 
-744.6965008059942 
)
;

boundaryField
{
	bottom
	{
		type	fixedValue;
		value	uniform 0.0;
	}
	top
	{
		type	fixedValue;
		value	uniform 0.0;
	}
	left
	{
		type	zeroGradient;
	}
	right
	{
		type	zeroGradient;
	}
	frontAndBackPlanes
	{
		type	empty;
	}
}
