/*
 _____     _____     _____ _____ _____ _____    |  High-order Python FOAM
|  |  |___|  _  |_ _|   __|     |  _  |     |   |  Python Version: 3.10
|     | . |   __| | |   __|  |  |     | | | |   |  Code Version: 0.0
|__|__|___|__|  |_  |__|  |_____|__|__|_|_|_|   |  License: GPLv3
                |___|
*/
FoamFile
{
    version     2.0;
    format      ascii;
    class       volVectorField;
    location    "2.0";
    object     U;
}

dimensions      [0 1 0 0 0 0 0]; 

internalField   nonuniform List<vector>
100
(
(0.010836292287540392 0.006832554709965242 0.0) 
(0.022539568347999625 0.01570705196224735 0.0) 
(0.030709624403132612 0.020800899903086194 0.0) 
(0.03876439421704366 0.023909691824236964 0.0) 
(0.046294852167620894 0.02544589310547149 0.0) 
(0.05373893522270393 0.02543872547709704 0.0) 
(0.061274509370038865 0.02388759370375469 0.0) 
(0.069341911463398 0.020767535592918225 0.0) 
(0.0775302024306741 0.015652181897532882 0.0) 
(0.08932503385153885 0.006846122770266731 0.0) 
(0.010083492116243927 0.0072029861938844595 0.0) 
(0.01809781849101208 0.01350604514716168 0.0) 
(0.027892684632341482 0.01851813909089959 0.0) 
(0.036952183347701645 0.021520591639821857 0.0) 
(0.04569797096234542 0.02294368358504635 0.0) 
(0.05434230138829015 0.022937004075542895 0.0) 
(0.06309027783021251 0.021501271851959894 0.0) 
(0.0721513383556511 0.01848832179980037 0.0) 
(0.08194141886758598 0.01347943574229846 0.0) 
(0.08990431594306092 0.007194756254307119 0.0) 
(0.010531592366598893 0.005425941641710013 0.0) 
(0.017218565930110116 0.010781250477545818 0.0) 
(0.026574310999999972 0.01453021761343813 0.0) 
(0.035998854169073 0.016955726306481202 0.0) 
(0.04534845360234055 0.018099646335505128 0.0) 
(0.05467059539859358 0.018094384461551736 0.0) 
(0.06401793547875609 0.016941364766511924 0.0) 
(0.07343729320356777 0.014510998405116323 0.0) 
(0.0827815047028229 0.010766117428826341 0.0) 
(0.08948072002744663 0.005422692694294681 0.0) 
(0.011722652618302354 0.003537363466272989 0.0) 
(0.016990507647369986 0.006916349423814605 0.0) 
(0.026102600566213705 0.009246440950017542 0.0) 
(0.03556243659329825 0.010770106352081334 0.0) 
(0.045175867940312885 0.011510858372692893 0.0) 
(0.05482564972271818 0.011507435310597764 0.0) 
(0.064436222401644 0.010760990458055947 0.0) 
(0.0738900364830706 0.00923563306125361 0.0) 
(0.08299539433549287 0.006908806381534871 0.0) 
(0.08821595855499935 0.0035348865887684113 0.0) 
(0.012479342302613163 0.001204160366621171 0.0) 
(0.016999378277333287 0.002369596460033681 0.0) 
(0.025958704114477614 0.0031561552819135887 0.0) 
(0.03541333445070907 0.0036726554746073043 0.0) 
(0.04511124783866234 0.003925016099980375 0.0) 
(0.05488133563020394 0.003922939337726834 0.0) 
(0.06457685317502893 0.003667249464399506 0.0) 
(0.07402785220709802 0.003149547467931372 0.0) 
(0.08298577736953397 0.002366809939938454 0.0) 
(0.08751898090338821 0.001203653776222392 0.0) 
(0.01250452475748352 -0.0012090550923665546 0.0) 
(0.017006076282336222 -0.002390661780986261 0.0) 
(0.02596579215566283 -0.0031908828370018107 0.0) 
(0.03541797720229485 -0.0037154241063784453 0.0) 
(0.04511307877986331 -0.003973312961743518 0.0) 
(0.0548805156650897 -0.003974478809705567 0.0) 
(0.06457354621611991 -0.003718627758377507 0.0) 
(0.07402224300155297 -0.00319540731828324 0.0) 
(0.08298113267372774 -0.0023975421116804274 0.0) 
(0.08749360873059099 -0.0012129107341645256 0.0) 
(0.011726435667229026 -0.0035427442024435563 0.0) 
(0.01701840913986146 -0.006939999178437101 0.0) 
(0.026125144077705133 -0.009279954558260486 0.0) 
(0.035576224989157364 -0.010810384545753598 0.0) 
(0.04518129868390208 -0.011557882746453838 0.0) 
(0.05482341314038854 -0.011558378920951622 0.0) 
(0.06442636580391968 -0.010812000868069441 0.0) 
(0.07387343089033646 -0.009282120194419501 0.0) 
(0.08297167881442409 -0.006944145915269508 0.0) 
(0.08822166544803883 -0.003545938683369356 0.0) 
(0.010620233054086731 -0.0054320604474849465 0.0) 
(0.017276187394120623 -0.010807067225024773 0.0) 
(0.026611066246664324 -0.01455605483449566 0.0) 
(0.036021001594724655 -0.01699221440174149 0.0) 
(0.0453595813550089 -0.018145351568845985 0.0) 
(0.0546665557654693 -0.01814398524110394 0.0) 
(0.06400130953886916 -0.0169929367995253 0.0) 
(0.07340986863434845 -0.014558045552941863 0.0) 
(0.08274735738424813 -0.010804367812695718 0.0) 
(0.08937648094113035 -0.005430002570093444 0.0) 
(0.010236749641108869 -0.007199503006252639 0.0) 
(0.018164419790390986 -0.013509846550711385 0.0) 
(0.027938514292017668 -0.01853752797156632 0.0) 
(0.03698064213643253 -0.021554407050280014 0.0) 
(0.045707177068646666 -0.02298621003630155 0.0) 
(0.054336689236570444 -0.022987622334160834 0.0) 
(0.06306751675056828 -0.021555047346053163 0.0) 
(0.07211128742762296 -0.018542662811934063 0.0) 
(0.08188622842022374 -0.01352009649107126 0.0) 
(0.08991746292753042 -0.0072047371218408925 0.0) 
(0.010861715157714906 -0.006830297581297698 0.0) 
(0.02261158554499777 -0.015691293383114098 0.0) 
(0.030765559383950824 -0.020817710527048224 0.0) 
(0.038803093696108085 -0.023940407389701206 0.0) 
(0.046313989522848285 -0.025488312176779784 0.0) 
(0.0537362356731444 -0.025489028397192602 0.0) 
(0.06124867918753189 -0.023942417880013094 0.0) 
(0.06928910383430127 -0.020820790812413732 0.0) 
(0.07744917920997058 -0.015719258089841894 0.0) 
(0.08914468821389895 -0.006834075028589921 0.0) 
)
;

boundaryField
{
	bottom
	{
		type	solidTraction;
		value	nonuniform List<vector>
10
(
(0.012073531808404685 0.005502474225404185 0.0) 
(0.023373006471111332 0.013755300032333866 0.0) 
(0.03218844549756469 0.020006983813453016 0.0) 
(0.03956680770685717 0.023490530154014047 0.0) 
(0.04657712543765887 0.025146627119432583 0.0) 
(0.05345503713733809 0.02513879893737958 0.0) 
(0.06047281382657829 0.023467174416299738 0.0) 
(0.06787027641824783 0.019967460722497485 0.0) 
(0.07674269812504991 0.013717099123833483 0.0) 
(0.08812558459840408 0.005514315853687899 0.0) 
)
;
	}
	top
	{
		type	solidTraction;
		value	nonuniform List<vector>
10
(
(0.012080115376677312 -0.005488885118341435 0.0) 
(0.02342066556375331 -0.013742052558930223 0.0) 
(0.03224888368302174 -0.020017134743491767 0.0) 
(0.03961045251611121 -0.02352039848478387 0.0) 
(0.04660035088261808 -0.02518960661040499 0.0) 
(0.053453696455132524 -0.025190346077395113 0.0) 
(0.06044442644387391 -0.023523095791529405 0.0) 
(0.06780957727782419 -0.020026639701246515 0.0) 
(0.07661605434943446 -0.013765360091729385 0.0) 
(0.08790834209445858 -0.005502073826784663 0.0) 
)
;
	}
	left
	{
		type	fixedValue;
		value	uniform (0.0 0.0 0.0);
	}
	right
	{
		type	fixedValue;
		value	uniform (0.1 0.0 0.0);
	}
	frontAndBackPlanes
	{
		type	empty;
	}
}
