/*
 _____     _____     _____ _____ _____ _____    |  High-order Python FOAM
|  |  |___|  _  |_ _|   __|     |  _  |     |   |  Python Version: 3.10
|     | . |   __| | |   __|  |  |     | | | |   |  Code Version: 0.0
|__|__|___|__|  |_  |__|  |_____|__|__|_|_|_|   |  License: GPLv3
                |___|
*/
FoamFile
{
    version     2.0;
    format      ascii;
    class       volScalarField;
    location    "60.0";
    object     pCorr;
}

dimensions      [0 0 0 1 0 0 0]; 

internalField   nonuniform List<scalar>
100
(
-838.1035864175976 
-2140.5685875086106 
-615.9906995883746 
-207.23941653771124 
-609.4130288237096 
-614.0592051897114 
-233.65706383052316 
-636.705302015268 
-1834.1407676452866 
-1021.1859548014971 
5214.686716803262 
-979.8512996995267 
128.5586344495257 
1172.2678758080167 
1138.9247408165527 
1132.1953371716854 
1159.5609668462766 
171.05786575654793 
-924.5293088870342 
5132.947822264504 
5081.955533713547 
-1392.1257681129803 
-821.7416079175321 
460.9054727634165 
645.001101923928 
640.9934409500029 
456.22406147640925 
-816.7491881547703 
-1385.390098821867 
4998.01972292842 
5536.648409275607 
-1819.2866015548423 
-1324.0996987898689 
38.682441301901484 
356.1354687415023 
354.0576222815664 
34.366659457816546 
-1330.291082866568 
-1837.839662623204 
5488.126292573799 
5847.713777741411 
-1790.2291506076579 
-1380.8040609872075 
34.76358807774498 
403.6879990373255 
402.525437839385 
31.80087612986284 
-1387.3352146814896 
-1807.0371993532067 
5804.404737657445 
5860.910718674764 
-1794.2537305245908 
-1385.1205188498716 
32.69610902664471 
402.9053779952306 
402.2199413689492 
31.89082317437284 
-1388.2796379139618 
-1808.1248439228484 
5822.4493607427175 
5578.407901283705 
-1836.4210047900729 
-1340.4381121216538 
33.076817045242805 
353.8088839367101 
353.8685702239505 
35.27213330720797 
-1335.8030462623094 
-1841.4488531751817 
5538.059298955355 
5168.875940665446 
-1423.4956755876372 
-854.9072217314412 
448.3182125676747 
638.535193549501 
638.7742261080226 
456.1223823562395 
-830.923592861008 
-1411.968478038603 
5087.603873869041 
5374.6463266984665 
-1031.8003764877835 
94.49674231884029 
1154.8786220152176 
1126.3199159140725 
1126.3485848830883 
1163.827196088899 
126.9282954337021 
-991.0535804964832 
5204.348569431971 
-882.944999121079 
-2116.9130850611223 
-618.4215368504997 
-198.31039905390224 
-603.064076993005 
-603.8021705718418 
-199.24776228068998 
-614.8313007846186 
-2139.0539358487945 
-851.6965261793077 
)
;

boundaryField
{
	bottom
	{
		type	fixedValue;
		value	uniform 0.0;
	}
	top
	{
		type	fixedValue;
		value	uniform 0.0;
	}
	left
	{
		type	zeroGradient;
	}
	right
	{
		type	zeroGradient;
	}
	frontAndBackPlanes
	{
		type	empty;
	}
}
