/*
 _____     _____     _____ _____ _____ _____    |  High-order Python FOAM
|  |  |___|  _  |_ _|   __|     |  _  |     |   |  Python Version: 3.10
|     | . |   __| | |   __|  |  |     | | | |   |  Code Version: 0.0
|__|__|___|__|  |_  |__|  |_____|__|__|_|_|_|   |  License: GPLv3
                |___|
*/
FoamFile
{
    version     2.0;
    format      ascii;
    class       volVectorField;
    location    "60.0";
    object     U;
}

dimensions      [0 1 0 0 0 0 0]; 

internalField   nonuniform List<vector>
100
(
(0.015948426042449997 0.035399634952049376 0.0) 
(0.020416019433540832 0.04665212715201272 0.0) 
(0.028585006104312805 0.04715729959852798 0.0) 
(0.03737959221287423 0.049512666981355445 0.0) 
(0.04592632313126706 0.05099411817731706 0.0) 
(0.05436839874631067 0.05098308236048303 0.0) 
(0.06293963933281302 0.049471591814113494 0.0) 
(0.07181337678786623 0.04712117980279718 0.0) 
(0.07979933168959512 0.04622463599385052 0.0) 
(0.08506011302659316 0.034844565530363567 0.0) 
(0.01548886164296926 0.02325357563600275 0.0) 
(0.015181946571176703 0.035988887843086646 0.0) 
(0.024716611022916803 0.04003861226363741 0.0) 
(0.03504328545343198 0.04182593360344875 0.0) 
(0.045150092190303685 0.04281764923761028 0.0) 
(0.05514428743020671 0.04279491461660668 0.0) 
(0.06526967532419735 0.04174919971835415 0.0) 
(0.07560162408777547 0.03985938026090759 0.0) 
(0.08513567726437109 0.03563365685912755 0.0) 
(0.08461546701182583 0.023121870324528566 0.0) 
(0.011388573429726375 0.012844175089454492 0.0) 
(0.011308164921534705 0.02430745356023494 0.0) 
(0.021151928118825596 0.02866061122407298 0.0) 
(0.03290329510125286 0.030539415350196428 0.0) 
(0.044430081080389094 0.0312724219430882 0.0) 
(0.055804452173231225 0.031242958068326207 0.0) 
(0.06732420488829151 0.030445143980604633 0.0) 
(0.07904120892324198 0.02848856100832721 0.0) 
(0.08878956588893307 0.02412585249118807 0.0) 
(0.08869686332484591 0.012794769128133158 0.0) 
(0.01143465591502646 0.0071403734644206835 0.0) 
(0.008815011572899096 0.013856185091349886 0.0) 
(0.018803163496091777 0.017180280878098125 0.0) 
(0.0312979797748297 0.018612242899556607 0.0) 
(0.04386432244119921 0.01913305490903381 0.0) 
(0.05629818048633372 0.01910801549691606 0.0) 
(0.06884463883182944 0.01853781576308645 0.0) 
(0.08129104787498258 0.017072620389947737 0.0) 
(0.09122538340360477 0.013759608864568212 0.0) 
(0.08852002587609173 0.0071206756569607765 0.0) 
(0.011572709175492017 0.0022815726765043325 0.0) 
(0.007980940470734256 0.004550929727931147 0.0) 
(0.01768938097040431 0.005710113056310998 0.0) 
(0.030483604056210336 0.006255374855092296 0.0) 
(0.043556544336109504 0.006444603564547333 0.0) 
(0.05654974817840364 0.0064293949022822166 0.0) 
(0.06960130448181867 0.006213104267002944 0.0) 
(0.0823586142019027 0.0056523174984966194 0.0) 
(0.0920330079303663 0.004503368980411575 0.0) 
(0.08843979738198521 0.0022619489576506573 0.0) 
(0.011605104354846513 -0.0022304438459295516 0.0) 
(0.007982169383311054 -0.004538147988878066 0.0) 
(0.017691691509297693 -0.005721039614673337 0.0) 
(0.030482143367170596 -0.006273916096083805 0.0) 
(0.04354692707836497 -0.006473231631432017 0.0) 
(0.05653139684286586 -0.006478333106892667 0.0) 
(0.0695775617987801 -0.006288067060386914 0.0) 
(0.08233650600579737 -0.005741885271441927 0.0) 
(0.09202345346611923 -0.004566477259293272 0.0) 
(0.08840502608687933 -0.0022539534178744208 0.0) 
(0.011471630115970131 -0.007092857192538491 0.0) 
(0.008828963792568234 -0.013851951380007005 0.0) 
(0.018816593924090994 -0.01718594986209643 0.0) 
(0.03129490410949291 -0.01861444634435257 0.0) 
(0.04383580094861034 -0.01914356089005352 0.0) 
(0.05624221148762001 -0.019140774121945408 0.0) 
(0.0687683279469012 -0.018606188787938557 0.0) 
(0.08121894195412485 -0.017173178810758156 0.0) 
(0.09117675213756811 -0.01385328174997052 0.0) 
(0.08850343354704387 -0.00712532574855612 0.0) 
(0.011522510715663497 -0.012828110972838052 0.0) 
(0.011380576632660346 -0.024323507610458293 0.0) 
(0.021181341601636976 -0.028637174770489132 0.0) 
(0.03289991506415913 -0.03050672589642514 0.0) 
(0.04438470091806301 -0.03124551134260894 0.0) 
(0.055710748252477876 -0.031238157850261926 0.0) 
(0.06718878979761383 -0.030485792597652932 0.0) 
(0.07889041794309815 -0.028603473434126805 0.0) 
(0.0886952569073859 -0.024271957028565112 0.0) 
(0.08851096725064236 -0.012844446622851901 0.0) 
(0.015970677118762357 -0.023349932388918308 0.0) 
(0.015255842518252379 -0.03595895246544861 0.0) 
(0.024750660114133474 -0.039968030071557734 0.0) 
(0.03503123557273746 -0.041740014206614336 0.0) 
(0.045085617231972526 -0.04273420504416265 0.0) 
(0.05502214687309446 -0.04273166804781891 0.0) 
(0.06508236263467328 -0.04172421581096079 0.0) 
(0.07537376563212178 -0.03993168283097224 0.0) 
(0.08486085089437706 -0.03591040626481987 0.0) 
(0.08453412162151104 -0.023249062874821383 0.0) 
(0.015939426218119626 -0.03553866512686151 0.0) 
(0.020488774192291094 -0.0465737743003788 0.0) 
(0.02858369214587937 -0.047052965421456705 0.0) 
(0.03735244616406152 -0.049377585026744726 0.0) 
(0.045856555486191754 -0.050866490667766696 0.0) 
(0.054242183541136225 -0.050865249754868384 0.0) 
(0.06274955333664296 -0.04937481337147053 0.0) 
(0.0715178827731569 -0.04702552866729889 0.0) 
(0.07966077659396169 -0.04653214239836983 0.0) 
(0.08409281723156871 -0.0353498114244277 0.0) 
)
;

boundaryField
{
	bottom
	{
		type	solidTraction;
		value	nonuniform List<vector>
10
(
(0.017317100330501524 0.04136413591031535 0.0) 
(0.023228165555048755 0.04922582174666753 0.0) 
(0.03061285583601438 0.05143848846736923 0.0) 
(0.03849754518303221 0.0532182940073344 0.0) 
(0.046295795893082144 0.0547640125987053 0.0) 
(0.054005489294371205 0.05475778716486209 0.0) 
(0.06184027575737668 0.053206871683973644 0.0) 
(0.06975819643841104 0.05136716680945098 0.0) 
(0.07729693638572468 0.04880528027170014 0.0) 
(0.08382240329049558 0.04069862347800568 0.0) 
)
;
	}
	top
	{
		type	solidTraction;
		value	nonuniform List<vector>
10
(
(0.017229827463650167 -0.04149500961622949 0.0) 
(0.023212778918104644 -0.04918060799424408 0.0) 
(0.0306064811898438 -0.051314860345045815 0.0) 
(0.038458983573620556 -0.053067771474772076 0.0) 
(0.046219673805418714 -0.05461344746213073 0.0) 
(0.05387511467312493 -0.05461372063518761 0.0) 
(0.06163641969243201 -0.05306551954038554 0.0) 
(0.06949773618758887 -0.05129295909618744 0.0) 
(0.07686020943546129 -0.04910081458532725 0.0) 
(0.08274142231146732 -0.04129251232120923 0.0) 
)
;
	}
	left
	{
		type	fixedValue;
		value	uniform (0.0 0.0 0.0);
	}
	right
	{
		type	fixedValue;
		value	uniform (0.1 0.0 0.0);
	}
	frontAndBackPlanes
	{
		type	empty;
	}
}
