/*
 _____     _____     _____ _____ _____ _____    |  High-order Python FOAM
|  |  |___|  _  |_ _|   __|     |  _  |     |   |  Python Version: 3.10
|     | . |   __| | |   __|  |  |     | | | |   |  Code Version: 0.0
|__|__|___|__|  |_  |__|  |_____|__|__|_|_|_|   |  License: GPLv3
                |___|
*/
FoamFile
{
    version     2.0;
    format      ascii;
    class       volScalarField;
    location    "49.0";
    object     pCorr;
}

dimensions      [0 0 0 1 0 0 0]; 

internalField   nonuniform List<scalar>
100
(
-590.2544984272025 
-3227.917040596878 
-1134.3024676722505 
-359.5813500725606 
-679.3970229828951 
-687.2545529119149 
-387.7171523117255 
-1143.961892184569 
-2852.7459067810782 
-833.8277337338004 
6862.5650341797145 
-1245.8271024259857 
-19.145408372651257 
1532.4195561379872 
1687.851787118771 
1679.7494600955288 
1522.2238288656465 
44.945691281605974 
-1176.1425758902149 
6753.304573491468 
6778.829348910378 
-1678.0160308414797 
-1290.852099425544 
425.05659000828393 
852.8497073676765 
847.7200833273521 
420.4028111674436 
-1282.2770577382175 
-1668.7305037119877 
6685.009570896476 
7346.967434549715 
-2172.1428910884806 
-2040.2345487371185 
-337.42164969041767 
232.0007638559935 
228.4073983455088 
-345.15066788999326 
-2050.9053874579445 
-2197.2391346826466 
7296.487819306467 
7742.09947697396 
-2147.441098390597 
-2198.0502207873446 
-488.12414624836515 
127.2280252881904 
124.48439666312993 
-495.4667166522555 
-2211.4562835596644 
-2172.260721162128 
7694.700483754794 
7759.207553869986 
-2151.7917451261324 
-2203.248377571616 
-490.6745486406498 
126.6433457574231 
124.77701925443358 
-494.83729879564555 
-2212.41136673191 
-2173.630261382991 
7715.332804706119 
7400.325779815543 
-2189.4143994893675 
-2059.8519993222453 
-344.56253038828777 
230.46014295121714 
230.27203489613186 
-343.37739613594545 
-2058.4870589656794 
-2202.3127097450156 
7353.526565742152 
6889.71317767151 
-1711.6040156460372 
-1330.7456888113074 
409.75219844542664 
848.2382832016192 
849.2493540167409 
420.0596981595666 
-1305.1195222899487 
-1705.4938611844882 
6789.6249612489555 
7054.802174260243 
-1305.523399975733 
-59.799298117252924 
1512.3972267565157 
1677.3472384680042 
1678.8623352139994 
1525.7311482334912 
-22.00955261248386 
-1263.3298490315085 
6848.835703826495 
-638.6663448496452 
-3199.359989162172 
-1138.4156131341738 
-349.78215223627467 
-668.3483040171172 
-668.2394936543892 
-349.6522514404046 
-1134.8491560217183 
-3229.5274231854373 
-608.1606798541274 
)
;

boundaryField
{
	bottom
	{
		type	fixedValue;
		value	uniform 0.0;
	}
	top
	{
		type	fixedValue;
		value	uniform 0.0;
	}
	left
	{
		type	zeroGradient;
	}
	right
	{
		type	zeroGradient;
	}
	frontAndBackPlanes
	{
		type	empty;
	}
}
