/*--------------------------------*- C++ -*----------------------------------*\
| =========                 |                                                 |
| \\      /  F ield         | foam-extend: Open Source CFD                    |
|  \\    /   O peration     | Version:     4.1                                |
|   \\  /    A nd           | Web:         http://www.foam-extend.org         |
|    \\/     M anipulation  |                                                 |
\*---------------------------------------------------------------------------*/
FoamFile
{
    version     2.0;
    format      ascii;
    class       volVectorField;
    location    "1";
    object      D;
}
// * * * * * * * * * * * * * * * * * * * * * * * * * * * * * * * * * * * * * //

dimensions      [0 1 0 0 0 0 0];

internalField   nonuniform List<vector> 
10000
(
(0.00108682 0.00474415 0)
(0.00311981 0.0109314 0)
(0.00535273 0.0159972 0)
(0.00731824 0.0201232 0)
(0.00914492 0.0236787 0)
(0.0108217 0.0267514 0)
(0.0123731 0.0294643 0)
(0.0138062 0.031883 0)
(0.0151342 0.0340702 0)
(0.0163685 0.0360682 0)
(0.0175215 0.0379118 0)
(0.0186047 0.0396255 0)
(0.019629 0.0412286 0)
(0.0206037 0.0427348 0)
(0.0215375 0.0441547 0)
(0.0224374 0.0454962 0)
(0.0233097 0.0467654 0)
(0.0241596 0.0479669 0)
(0.0249914 0.0491048 0)
(0.0258087 0.0501822 0)
(0.0266146 0.0512019 0)
(0.0274116 0.0521666 0)
(0.0282017 0.0530786 0)
(0.0289868 0.0539399 0)
(0.0297682 0.0547527 0)
(0.0305472 0.0555189 0)
(0.0313247 0.0562404 0)
(0.0321017 0.0569189 0)
(0.0328788 0.0575562 0)
(0.0336565 0.0581539 0)
(0.0344353 0.0587135 0)
(0.0352156 0.0592364 0)
(0.0359977 0.0597241 0)
(0.0367818 0.0601779 0)
(0.0375679 0.0605988 0)
(0.0383564 0.0609882 0)
(0.0391471 0.061347 0)
(0.03994 0.0616762 0)
(0.0407353 0.0619767 0)
(0.0415327 0.0622493 0)
(0.0423322 0.0624948 0)
(0.0431336 0.0627138 0)
(0.0439369 0.0629071 0)
(0.0447418 0.063075 0)
(0.0455482 0.063218 0)
(0.0463559 0.0633367 0)
(0.0471646 0.0634312 0)
(0.0479741 0.0635018 0)
(0.0487842 0.0635488 0)
(0.0495947 0.0635722 0)
(0.0504053 0.0635723 0)
(0.0512158 0.0635488 0)
(0.052026 0.0635018 0)
(0.0528355 0.0634312 0)
(0.0536442 0.0633367 0)
(0.0544519 0.063218 0)
(0.0552583 0.063075 0)
(0.0560632 0.0629071 0)
(0.0568665 0.0627139 0)
(0.0576679 0.0624948 0)
(0.0584674 0.0622493 0)
(0.0592648 0.0619767 0)
(0.0600601 0.0616762 0)
(0.060853 0.061347 0)
(0.0616437 0.0609882 0)
(0.0624321 0.0605988 0)
(0.0632183 0.0601779 0)
(0.0640024 0.0597241 0)
(0.0647845 0.0592364 0)
(0.0655648 0.0587135 0)
(0.0663436 0.0581539 0)
(0.0671213 0.0575562 0)
(0.0678984 0.0569189 0)
(0.0686754 0.0562404 0)
(0.0694529 0.0555189 0)
(0.0702319 0.0547527 0)
(0.0710133 0.0539399 0)
(0.0717984 0.0530786 0)
(0.0725885 0.0521667 0)
(0.0733855 0.051202 0)
(0.0741914 0.0501822 0)
(0.0750087 0.0491048 0)
(0.0758405 0.047967 0)
(0.0766904 0.0467654 0)
(0.0775627 0.0454963 0)
(0.0784626 0.0441548 0)
(0.0793964 0.0427349 0)
(0.0803711 0.0412287 0)
(0.0813953 0.0396256 0)
(0.0824786 0.0379118 0)
(0.0836316 0.0360683 0)
(0.0848659 0.0340702 0)
(0.0861939 0.031883 0)
(0.087627 0.0294642 0)
(0.0891784 0.0267514 0)
(0.0908551 0.0236786 0)
(0.0926818 0.0201231 0)
(0.0946473 0.0159971 0)
(0.0968802 0.0109313 0)
(0.0989132 0.0047441 0)
(0.000359069 0.00310208 0)
(0.00143032 0.00890018 0)
(0.00322154 0.0139689 0)
(0.00501567 0.0182305 0)
(0.00685016 0.0219103 0)
(0.00859344 0.0251079 0)
(0.0102494 0.0279398 0)
(0.0117949 0.0304703 0)
(0.0132369 0.0327591 0)
(0.0145796 0.0348473 0)
(0.0158341 0.0367692 0)
(0.0170111 0.0385498 0)
(0.018122 0.0402093 0)
(0.0191768 0.0417626 0)
(0.020185 0.0432214 0)
(0.0211545 0.0445949 0)
(0.0220922 0.0458901 0)
(0.0230039 0.0471128 0)
(0.0238944 0.0482677 0)
(0.0247677 0.0493587 0)
(0.0256271 0.0503892 0)
(0.0264754 0.0513623 0)
(0.0273149 0.0522807 0)
(0.0281474 0.0531468 0)
(0.0289745 0.0539631 0)
(0.0297975 0.0547317 0)
(0.0306174 0.0554545 0)
(0.0314353 0.0561337 0)
(0.0322518 0.056771 0)
(0.0330676 0.0573681 0)
(0.0338832 0.0579267 0)
(0.0346991 0.0584484 0)
(0.0355156 0.0589345 0)
(0.0363329 0.0593864 0)
(0.0371514 0.0598055 0)
(0.0379711 0.0601928 0)
(0.0387922 0.0605495 0)
(0.0396148 0.0608767 0)
(0.0404388 0.0611751 0)
(0.0412643 0.0614458 0)
(0.0420913 0.0616894 0)
(0.0429196 0.0619067 0)
(0.0437493 0.0620983 0)
(0.0445801 0.0622648 0)
(0.0454121 0.0624066 0)
(0.0462449 0.0625241 0)
(0.0470786 0.0626178 0)
(0.0479128 0.0626877 0)
(0.0487475 0.0627343 0)
(0.0495825 0.0627575 0)
(0.0504176 0.0627575 0)
(0.0512525 0.0627343 0)
(0.0520873 0.0626877 0)
(0.0529215 0.0626178 0)
(0.0537552 0.0625241 0)
(0.054588 0.0624066 0)
(0.0554199 0.0622648 0)
(0.0562508 0.0620983 0)
(0.0570804 0.0619067 0)
(0.0579088 0.0616894 0)
(0.0587358 0.0614458 0)
(0.0595613 0.0611751 0)
(0.0603853 0.0608767 0)
(0.0612079 0.0605495 0)
(0.062029 0.0601928 0)
(0.0628487 0.0598055 0)
(0.0636671 0.0593864 0)
(0.0644845 0.0589345 0)
(0.065301 0.0584484 0)
(0.0661168 0.0579267 0)
(0.0669325 0.0573681 0)
(0.0677483 0.056771 0)
(0.0685648 0.0561337 0)
(0.0693827 0.0554546 0)
(0.0702026 0.0547317 0)
(0.0710256 0.0539631 0)
(0.0718527 0.0531469 0)
(0.0726852 0.0522807 0)
(0.0735246 0.0513623 0)
(0.0743729 0.0503893 0)
(0.0752324 0.0493587 0)
(0.0761057 0.0482677 0)
(0.0769962 0.0471129 0)
(0.0779079 0.0458902 0)
(0.0788456 0.044595 0)
(0.0798151 0.0432215 0)
(0.0808232 0.0417626 0)
(0.0818781 0.0402094 0)
(0.082989 0.0385499 0)
(0.084166 0.0367692 0)
(0.0854205 0.0348474 0)
(0.0867632 0.0327591 0)
(0.0882052 0.0304703 0)
(0.0897507 0.0279398 0)
(0.0914067 0.0251079 0)
(0.0931499 0.0219103 0)
(0.0949844 0.0182304 0)
(0.0967785 0.0139688 0)
(0.0985697 0.00890008 0)
(0.0996409 0.00310203 0)
(0.000183229 0.00281923 0)
(0.000713297 0.00787268 0)
(0.00204841 0.0124143 0)
(0.00355448 0.0164909 0)
(0.00523494 0.0201337 0)
(0.00690322 0.0233814 0)
(0.00854084 0.0262961 0)
(0.0101015 0.0289247 0)
(0.0115816 0.0313126 0)
(0.0129752 0.0334948 0)
(0.0142883 0.0355014 0)
(0.0155273 0.0373565 0)
(0.0167011 0.0390799 0)
(0.0178184 0.0406872 0)
(0.0188876 0.0421913 0)
(0.0199163 0.0436023 0)
(0.0209112 0.0449284 0)
(0.0218781 0.0461765 0)
(0.0228218 0.0473522 0)
(0.0237464 0.0484602 0)
(0.0246554 0.0495046 0)
(0.0255516 0.0504889 0)
(0.0264373 0.0514163 0)
(0.0273145 0.0522897 0)
(0.0281848 0.0531118 0)
(0.0290497 0.0538848 0)
(0.0299103 0.0546112 0)
(0.0307675 0.055293 0)
(0.0316221 0.0559321 0)
(0.0324749 0.0565305 0)
(0.0333264 0.0570898 0)
(0.0341772 0.0576118 0)
(0.0350275 0.0580978 0)
(0.0358778 0.0585494 0)
(0.0367282 0.0589679 0)
(0.0375792 0.0593545 0)
(0.0384307 0.0597103 0)
(0.0392829 0.0600365 0)
(0.040136 0.0603339 0)
(0.0409899 0.0606035 0)
(0.0418447 0.0608461 0)
(0.0427003 0.0610624 0)
(0.0435569 0.0612531 0)
(0.0444142 0.0614186 0)
(0.0452722 0.0615597 0)
(0.0461309 0.0616765 0)
(0.0469901 0.0617696 0)
(0.0478498 0.0618392 0)
(0.0487098 0.0618854 0)
(0.0495699 0.0619085 0)
(0.0504302 0.0619085 0)
(0.0512903 0.0618854 0)
(0.0521503 0.0618392 0)
(0.0530099 0.0617696 0)
(0.0538692 0.0616765 0)
(0.0547278 0.0615597 0)
(0.0555859 0.0614186 0)
(0.0564432 0.0612531 0)
(0.0572997 0.0610624 0)
(0.0581554 0.0608461 0)
(0.0590102 0.0606035 0)
(0.0598641 0.0603339 0)
(0.0607172 0.0600365 0)
(0.0615694 0.0597103 0)
(0.0624209 0.0593545 0)
(0.0632718 0.0589679 0)
(0.0641223 0.0585494 0)
(0.0649726 0.0580978 0)
(0.0658229 0.0576118 0)
(0.0666736 0.0570898 0)
(0.0675251 0.0565305 0)
(0.0683779 0.0559321 0)
(0.0692326 0.055293 0)
(0.0700898 0.0546112 0)
(0.0709504 0.0538849 0)
(0.0718152 0.0531118 0)
(0.0726856 0.0522898 0)
(0.0735628 0.0514163 0)
(0.0744485 0.0504889 0)
(0.0753447 0.0495046 0)
(0.0762536 0.0484602 0)
(0.0771783 0.0473523 0)
(0.078122 0.0461766 0)
(0.0790889 0.0449285 0)
(0.0800838 0.0436023 0)
(0.0811125 0.0421913 0)
(0.0821817 0.0406873 0)
(0.083299 0.0390799 0)
(0.0844728 0.0373566 0)
(0.0857118 0.0355015 0)
(0.0870249 0.0334948 0)
(0.0884185 0.0313126 0)
(0.0898986 0.0289247 0)
(0.0914593 0.026296 0)
(0.0930969 0.0233814 0)
(0.0947652 0.0201336 0)
(0.0964456 0.0164908 0)
(0.0979516 0.0124142 0)
(0.0992867 0.00787262 0)
(0.0998168 0.0028192 0)
(0.000145603 0.00239525 0)
(0.000548048 0.0069892 0)
(0.00155402 0.0111784 0)
(0.00274922 0.0150384 0)
(0.00418038 0.0185732 0)
(0.00567451 0.0218001 0)
(0.00720213 0.0247426 0)
(0.00870176 0.0274275 0)
(0.0101577 0.0298842 0)
(0.0115534 0.0321389 0)
(0.012887 0.0342158 0)
(0.0141585 0.0361359 0)
(0.0153726 0.0379173 0)
(0.0165348 0.0395754 0)
(0.0176514 0.041123 0)
(0.0187286 0.0425709 0)
(0.0197722 0.0439281 0)
(0.0207872 0.0452022 0)
(0.0217782 0.0463994 0)
(0.0227492 0.0475253 0)
(0.0237034 0.0485844 0)
(0.0246437 0.0495808 0)
(0.0255724 0.0505182 0)
(0.0264914 0.0513998 0)
(0.0274025 0.0522285 0)
(0.0283071 0.0530069 0)
(0.0292063 0.0537375 0)
(0.0301012 0.0544227 0)
(0.0309925 0.0550645 0)
(0.0318811 0.0556648 0)
(0.0327674 0.0562256 0)
(0.0336522 0.0567485 0)
(0.0345357 0.0572351 0)
(0.0354183 0.0576869 0)
(0.0363005 0.0581054 0)
(0.0371823 0.0584918 0)
(0.0380641 0.0588472 0)
(0.038946 0.0591729 0)
(0.0398282 0.0594697 0)
(0.0407106 0.0597387 0)
(0.0415935 0.0599806 0)
(0.0424768 0.0601962 0)
(0.0433606 0.0603862 0)
(0.0442448 0.0605512 0)
(0.0451294 0.0606916 0)
(0.0460144 0.060808 0)
(0.0468997 0.0609007 0)
(0.0477853 0.0609699 0)
(0.0486711 0.061016 0)
(0.0495571 0.061039 0)
(0.050443 0.061039 0)
(0.0513289 0.061016 0)
(0.0522147 0.0609699 0)
(0.0531003 0.0609007 0)
(0.0539857 0.060808 0)
(0.0548707 0.0606916 0)
(0.0557553 0.0605512 0)
(0.0566395 0.0603862 0)
(0.0575233 0.0601962 0)
(0.0584066 0.0599806 0)
(0.0592894 0.0597387 0)
(0.0601719 0.0594697 0)
(0.061054 0.0591729 0)
(0.0619359 0.0588472 0)
(0.0628177 0.0584918 0)
(0.0636996 0.0581054 0)
(0.0645817 0.057687 0)
(0.0654644 0.0572351 0)
(0.0663479 0.0567485 0)
(0.0672326 0.0562256 0)
(0.068119 0.0556648 0)
(0.0690076 0.0550645 0)
(0.0698989 0.0544227 0)
(0.0707938 0.0537376 0)
(0.071693 0.0530069 0)
(0.0725975 0.0522285 0)
(0.0735086 0.0513998 0)
(0.0744277 0.0505182 0)
(0.0753564 0.0495808 0)
(0.0762966 0.0485844 0)
(0.0772508 0.0475253 0)
(0.0782218 0.0463995 0)
(0.0792129 0.0452022 0)
(0.0802279 0.0439282 0)
(0.0812714 0.042571 0)
(0.0823486 0.0411231 0)
(0.0834653 0.0395755 0)
(0.0846275 0.0379174 0)
(0.0858416 0.036136 0)
(0.0871131 0.0342158 0)
(0.0884467 0.0321389 0)
(0.0898424 0.0298842 0)
(0.0912984 0.0274275 0)
(0.092798 0.0247426 0)
(0.0943256 0.0218 0)
(0.0958197 0.0185732 0)
(0.0972509 0.0150384 0)
(0.098446 0.0111783 0)
(0.099452 0.00698916 0)
(0.0998544 0.00239523 0)
(0.000114555 0.00218349 0)
(0.000441604 0.00636333 0)
(0.00126218 0.0102265 0)
(0.00224375 0.0138462 0)
(0.00345773 0.0172212 0)
(0.00476949 0.0203658 0)
(0.0061569 0.0232822 0)
(0.00755838 0.0259802 0)
(0.00895227 0.028473 0)
(0.0103151 0.0307763 0)
(0.0116383 0.0329067 0)
(0.0129164 0.0348803 0)
(0.0141493 0.0367123 0)
(0.0153388 0.0384165 0)
(0.0164884 0.040005 0)
(0.0176023 0.0414887 0)
(0.0186848 0.0428767 0)
(0.0197399 0.044177 0)
(0.0207716 0.0453965 0)
(0.0217832 0.0465411 0)
(0.0227778 0.047616 0)
(0.023758 0.0486257 0)
(0.024726 0.0495741 0)
(0.0256837 0.050465 0)
(0.0266327 0.0513014 0)
(0.0275745 0.0520863 0)
(0.0285102 0.0528223 0)
(0.0294408 0.0535118 0)
(0.0303672 0.0541572 0)
(0.0312901 0.0547605 0)
(0.0322101 0.0553236 0)
(0.0331278 0.0558483 0)
(0.0340436 0.0563364 0)
(0.0349579 0.0567893 0)
(0.0358712 0.0572085 0)
(0.0367835 0.0575954 0)
(0.0376953 0.0579511 0)
(0.0386066 0.0582769 0)
(0.0395177 0.0585738 0)
(0.0404287 0.0588426 0)
(0.0413397 0.0590843 0)
(0.0422507 0.0592997 0)
(0.0431619 0.0594895 0)
(0.0440732 0.0596542 0)
(0.0449847 0.0597944 0)
(0.0458963 0.0599105 0)
(0.0468081 0.060003 0)
(0.04772 0.0600721 0)
(0.0486319 0.060118 0)
(0.049544 0.0601409 0)
(0.0504561 0.0601409 0)
(0.0513681 0.060118 0)
(0.0522801 0.0600721 0)
(0.053192 0.060003 0)
(0.0541038 0.0599105 0)
(0.0550154 0.0597944 0)
(0.0559269 0.0596542 0)
(0.0568382 0.0594895 0)
(0.0577493 0.0592997 0)
(0.0586604 0.0590844 0)
(0.0595713 0.0588426 0)
(0.0604823 0.0585738 0)
(0.0613934 0.0582769 0)
(0.0623048 0.0579512 0)
(0.0632165 0.0575954 0)
(0.0641289 0.0572085 0)
(0.0650421 0.0567893 0)
(0.0659565 0.0563364 0)
(0.0668723 0.0558483 0)
(0.06779 0.0553236 0)
(0.06871 0.0547605 0)
(0.0696328 0.0541572 0)
(0.0705592 0.0535118 0)
(0.0714898 0.0528223 0)
(0.0724255 0.0520863 0)
(0.0733673 0.0513014 0)
(0.0743164 0.050465 0)
(0.0752741 0.0495742 0)
(0.0762421 0.0486257 0)
(0.0772223 0.047616 0)
(0.0782169 0.0465411 0)
(0.0792285 0.0453965 0)
(0.0802602 0.044177 0)
(0.0813153 0.0428767 0)
(0.0823978 0.0414887 0)
(0.0835116 0.0400051 0)
(0.0846613 0.0384165 0)
(0.0858508 0.0367123 0)
(0.0870837 0.0348803 0)
(0.0883618 0.0329067 0)
(0.089685 0.0307763 0)
(0.0910479 0.028473 0)
(0.0924418 0.0259802 0)
(0.0938432 0.0232822 0)
(0.0952306 0.0203658 0)
(0.0965424 0.0172212 0)
(0.0977563 0.0138462 0)
(0.0987379 0.0102264 0)
(0.0995584 0.00636331 0)
(0.0998855 0.00218348 0)
(0.000100252 0.00194972 0)
(0.000384737 0.00579323 0)
(0.00108519 0.00940863 0)
(0.00191783 0.0128336 0)
(0.00295731 0.0160591 0)
(0.00410239 0.0191019 0)
(0.0053443 0.0219599 0)
(0.0066306 0.0246356 0)
(0.00793979 0.0271322 0)
(0.00924576 0.0294567 0)
(0.0105357 0.0316186 0)
(0.0117993 0.0336288 0)
(0.0130325 0.0354988 0)
(0.0142334 0.03724 0)
(0.0154026 0.0388631 0)
(0.0165418 0.0403781 0)
(0.0176536 0.041794 0)
(0.0187408 0.0431188 0)
(0.0198062 0.0443595 0)
(0.0208527 0.0455223 0)
(0.0218826 0.0466128 0)
(0.0228983 0.0476359 0)
(0.0239018 0.0485957 0)
(0.0248949 0.0494962 0)
(0.0258789 0.0503407 0)
(0.0268554 0.0511325 0)
(0.0278253 0.0518743 0)
(0.0287896 0.0525688 0)
(0.0297492 0.0532183 0)
(0.0307049 0.053825 0)
(0.0316572 0.054391 0)
(0.0326067 0.0549181 0)
(0.0335538 0.055408 0)
(0.0344989 0.0558625 0)
(0.0354425 0.0562829 0)
(0.0363848 0.0566708 0)
(0.037326 0.0570272 0)
(0.0382665 0.0573535 0)
(0.0392063 0.0576508 0)
(0.0401456 0.0579199 0)
(0.0410846 0.0581617 0)
(0.0420233 0.0583772 0)
(0.0429619 0.0585669 0)
(0.0439004 0.0587316 0)
(0.0448388 0.0588717 0)
(0.0457772 0.0589878 0)
(0.0467156 0.0590802 0)
(0.047654 0.0591492 0)
(0.0485924 0.0591951 0)
(0.0495308 0.059218 0)
(0.0504692 0.059218 0)
(0.0514077 0.0591951 0)
(0.0523461 0.0591492 0)
(0.0532845 0.0590802 0)
(0.0542229 0.0589878 0)
(0.0551613 0.0588717 0)
(0.0560997 0.0587316 0)
(0.0570382 0.0585669 0)
(0.0579767 0.0583772 0)
(0.0589155 0.0581617 0)
(0.0598545 0.0579199 0)
(0.0607938 0.0576508 0)
(0.0617336 0.0573536 0)
(0.062674 0.0570273 0)
(0.0636153 0.0566708 0)
(0.0645576 0.0562829 0)
(0.0655011 0.0558625 0)
(0.0664463 0.055408 0)
(0.0673934 0.0549181 0)
(0.0683429 0.054391 0)
(0.0692952 0.053825 0)
(0.0702508 0.0532183 0)
(0.0712104 0.0525688 0)
(0.0721748 0.0518744 0)
(0.0731447 0.0511325 0)
(0.0741211 0.0503408 0)
(0.0751052 0.0494962 0)
(0.0760982 0.0485957 0)
(0.0771017 0.0476359 0)
(0.0781174 0.0466129 0)
(0.0791474 0.0455224 0)
(0.0801938 0.0443595 0)
(0.0812593 0.0431188 0)
(0.0823464 0.0417941 0)
(0.0834582 0.0403782 0)
(0.0845975 0.0388632 0)
(0.0857666 0.03724 0)
(0.0869675 0.0354989 0)
(0.0882008 0.0336288 0)
(0.0894644 0.0316186 0)
(0.0907544 0.0294568 0)
(0.0920603 0.0271322 0)
(0.0933695 0.0246356 0)
(0.0946558 0.0219599 0)
(0.0958977 0.0191019 0)
(0.0970428 0.0160591 0)
(0.0980822 0.0128336 0)
(0.0989149 0.00940863 0)
(0.0996153 0.00579323 0)
(0.0998998 0.00194973 0)
(8.52309e-05 0.00177561 0)
(0.000328628 0.00532299 0)
(0.000936704 0.00871347 0)
(0.00166386 0.0119617 0)
(0.0025738 0.0150463 0)
(0.00358523 0.0179809 0)
(0.00469853 0.0207622 0)
(0.00587286 0.023391 0)
(0.00709091 0.0258656 0)
(0.00832806 0.0281874 0)
(0.00956997 0.0303602 0)
(0.0108039 0.0323901 0)
(0.0120226 0.0342847 0)
(0.0132213 0.0360526 0)
(0.0143978 0.0377026 0)
(0.0155516 0.0392434 0)
(0.0166834 0.0406832 0)
(0.0177946 0.0420297 0)
(0.0188869 0.0432898 0)
(0.0199621 0.0444697 0)
(0.0210222 0.0455752 0)
(0.0220689 0.0466112 0)
(0.023104 0.0475823 0)
(0.0241288 0.0484925 0)
(0.0251448 0.0493454 0)
(0.0261531 0.0501444 0)
(0.0271548 0.0508924 0)
(0.0281507 0.0515922 0)
(0.0291417 0.0522462 0)
(0.0301285 0.0528568 0)
(0.0311115 0.053426 0)
(0.0320915 0.0539559 0)
(0.0330688 0.0544482 0)
(0.0340438 0.0549046 0)
(0.0350169 0.0553267 0)
(0.0359883 0.0557159 0)
(0.0369584 0.0560735 0)
(0.0379274 0.0564007 0)
(0.0388955 0.0566986 0)
(0.0398629 0.0569683 0)
(0.0408296 0.0572106 0)
(0.0417958 0.0574264 0)
(0.0427617 0.0576164 0)
(0.0437273 0.0577812 0)
(0.0446926 0.0579215 0)
(0.0456578 0.0580377 0)
(0.0466228 0.0581301 0)
(0.0475878 0.0581992 0)
(0.0485527 0.0582451 0)
(0.0495176 0.058268 0)
(0.0504825 0.058268 0)
(0.0514473 0.0582451 0)
(0.0524123 0.0581992 0)
(0.0533772 0.0581301 0)
(0.0543423 0.0580377 0)
(0.0553074 0.0579215 0)
(0.0562728 0.0577812 0)
(0.0572384 0.0576164 0)
(0.0582042 0.0574264 0)
(0.0591705 0.0572106 0)
(0.0601372 0.0569683 0)
(0.0611045 0.0566986 0)
(0.0620726 0.0564007 0)
(0.0630416 0.0560735 0)
(0.0640117 0.0557159 0)
(0.0649832 0.0553267 0)
(0.0659563 0.0549047 0)
(0.0669313 0.0544482 0)
(0.0679086 0.0539559 0)
(0.0688885 0.053426 0)
(0.0698716 0.0528568 0)
(0.0708583 0.0522462 0)
(0.0718493 0.0515922 0)
(0.0728453 0.0508924 0)
(0.0738469 0.0501444 0)
(0.0748553 0.0493455 0)
(0.0758712 0.0484925 0)
(0.0768961 0.0475823 0)
(0.0779311 0.0466113 0)
(0.0789779 0.0455752 0)
(0.080038 0.0444698 0)
(0.0811132 0.0432898 0)
(0.0822054 0.0420297 0)
(0.0833166 0.0406832 0)
(0.0844485 0.0392434 0)
(0.0856023 0.0377026 0)
(0.0867788 0.0360526 0)
(0.0879774 0.0342847 0)
(0.0891962 0.0323901 0)
(0.0904301 0.0303602 0)
(0.091672 0.0281874 0)
(0.0929092 0.0258656 0)
(0.0941272 0.023391 0)
(0.0953016 0.0207622 0)
(0.0964148 0.0179809 0)
(0.0974263 0.0150463 0)
(0.0983362 0.0119617 0)
(0.0990633 0.00871349 0)
(0.0996714 0.00532301 0)
(0.0999148 0.00177562 0)
(7.28192e-05 0.00161688 0)
(0.000281824 0.0049057 0)
(0.000812732 0.00809833 0)
(0.00145575 0.0111898 0)
(0.00226435 0.014148 0)
(0.00316906 0.0169793 0)
(0.00417387 0.019679 0)
(0.00524722 0.022248 0)
(0.00637674 0.0246829 0)
(0.0075414 0.026983 0)
(0.00872755 0.0291483 0)
(0.0099218 0.0311814 0)
(0.0111151 0.0330867 0)
(0.0123007 0.0348699 0)
(0.0134742 0.0365377 0)
(0.0146331 0.0380973 0)
(0.0157764 0.0395557 0)
(0.016904 0.0409199 0)
(0.0180164 0.0421964 0)
(0.0191145 0.0433914 0)
(0.0201995 0.0445103 0)
(0.0212727 0.0455583 0)
(0.0223353 0.04654 0)
(0.0233884 0.0474594 0)
(0.0244332 0.0483205 0)
(0.0254706 0.0491265 0)
(0.0265015 0.0498807 0)
(0.0275268 0.0505858 0)
(0.0285472 0.0512445 0)
(0.0295633 0.0518591 0)
(0.0305755 0.0524318 0)
(0.0315846 0.0529646 0)
(0.0325908 0.0534595 0)
(0.0335945 0.0539182 0)
(0.0345961 0.0543421 0)
(0.0355959 0.0547329 0)
(0.0365942 0.0550919 0)
(0.0375911 0.0554202 0)
(0.038587 0.0557191 0)
(0.0395819 0.0559895 0)
(0.0405759 0.0562325 0)
(0.0415694 0.0564488 0)
(0.0425623 0.0566392 0)
(0.0435547 0.0568044 0)
(0.0445469 0.0569449 0)
(0.0455387 0.0570612 0)
(0.0465303 0.0571539 0)
(0.0475218 0.057223 0)
(0.0485131 0.057269 0)
(0.0495044 0.057292 0)
(0.0504957 0.057292 0)
(0.0514869 0.057269 0)
(0.0524783 0.057223 0)
(0.0534698 0.0571539 0)
(0.0544614 0.0570613 0)
(0.0554532 0.0569449 0)
(0.0564453 0.0568044 0)
(0.0574378 0.0566392 0)
(0.0584307 0.0564488 0)
(0.0594241 0.0562325 0)
(0.0604182 0.0559895 0)
(0.0614131 0.0557191 0)
(0.0624089 0.0554202 0)
(0.0634059 0.0550919 0)
(0.0644041 0.0547329 0)
(0.0654039 0.0543422 0)
(0.0664056 0.0539182 0)
(0.0674093 0.0534596 0)
(0.0684155 0.0529647 0)
(0.0694245 0.0524318 0)
(0.0704368 0.0518591 0)
(0.0714528 0.0512445 0)
(0.0724732 0.0505858 0)
(0.0734985 0.0498807 0)
(0.0745295 0.0491266 0)
(0.0755669 0.0483205 0)
(0.0766116 0.0474595 0)
(0.0776648 0.04654 0)
(0.0787273 0.0455583 0)
(0.0798005 0.0445104 0)
(0.0808856 0.0433914 0)
(0.0819837 0.0421965 0)
(0.0830961 0.0409199 0)
(0.0842237 0.0395557 0)
(0.085367 0.0380973 0)
(0.0865259 0.0365378 0)
(0.0876994 0.0348699 0)
(0.0888849 0.0330867 0)
(0.0900783 0.0311814 0)
(0.0912725 0.0291483 0)
(0.0924587 0.026983 0)
(0.0936233 0.0246829 0)
(0.0947529 0.022248 0)
(0.0958262 0.0196791 0)
(0.096831 0.0169793 0)
(0.0977357 0.014148 0)
(0.0985443 0.0111898 0)
(0.0991873 0.00809836 0)
(0.0997182 0.00490573 0)
(0.0999272 0.0016169 0)
(6.14792e-05 0.00148869 0)
(0.000239329 0.00455023 0)
(0.000702365 0.00756027 0)
(0.00127421 0.0105041 0)
(0.00199998 0.0133425 0)
(0.00281876 0.016074 0)
(0.00373434 0.0186911 0)
(0.00472115 0.0211936 0)
(0.00577049 0.023578 0)
(0.00686527 0.0258427 0)
(0.00799368 0.0279861 0)
(0.00914307 0.0300085 0)
(0.010304 0.0319118 0)
(0.0114683 0.0336994 0)
(0.0126305 0.0353758 0)
(0.0137865 0.0369466 0)
(0.0149337 0.0384177 0)
(0.0160707 0.0397949 0)
(0.0171969 0.0410843 0)
(0.0183123 0.0422915 0)
(0.0194173 0.0434218 0)
(0.0205124 0.0444802 0)
(0.0215985 0.0454713 0)
(0.0226763 0.0463992 0)
(0.0237467 0.0472678 0)
(0.0248103 0.0480805 0)
(0.025868 0.0488406 0)
(0.0269204 0.0495509 0)
(0.027968 0.0502141 0)
(0.0290116 0.0508327 0)
(0.0300514 0.0514089 0)
(0.031088 0.0519449 0)
(0.0321218 0.0524425 0)
(0.033153 0.0529034 0)
(0.0341822 0.0533294 0)
(0.0352094 0.0537219 0)
(0.0362349 0.0540824 0)
(0.0372591 0.054412 0)
(0.038282 0.054712 0)
(0.0393039 0.0549833 0)
(0.0403248 0.0552271 0)
(0.041345 0.0554441 0)
(0.0423646 0.055635 0)
(0.0433836 0.0558006 0)
(0.0444022 0.0559415 0)
(0.0454204 0.0560582 0)
(0.0464384 0.056151 0)
(0.0474561 0.0562203 0)
(0.0484738 0.0562664 0)
(0.0494913 0.0562894 0)
(0.0505088 0.0562894 0)
(0.0515263 0.0562664 0)
(0.0525439 0.0562203 0)
(0.0535617 0.056151 0)
(0.0545796 0.0560582 0)
(0.0555979 0.0559415 0)
(0.0566164 0.0558006 0)
(0.0576355 0.055635 0)
(0.058655 0.0554441 0)
(0.0596752 0.0552271 0)
(0.0606962 0.0549834 0)
(0.0617181 0.054712 0)
(0.062741 0.054412 0)
(0.0637651 0.0540824 0)
(0.0647907 0.0537219 0)
(0.0658179 0.0533294 0)
(0.066847 0.0529034 0)
(0.0678783 0.0524425 0)
(0.0689121 0.0519449 0)
(0.0699487 0.051409 0)
(0.0709885 0.0508327 0)
(0.072032 0.0502141 0)
(0.0730797 0.0495509 0)
(0.074132 0.0488406 0)
(0.0751897 0.0480805 0)
(0.0762534 0.0472678 0)
(0.0773237 0.0463993 0)
(0.0784015 0.0454713 0)
(0.0794876 0.0444803 0)
(0.0805827 0.0434218 0)
(0.0816877 0.0422915 0)
(0.0828031 0.0410843 0)
(0.0839293 0.039795 0)
(0.0850663 0.0384177 0)
(0.0862135 0.0369467 0)
(0.0873695 0.0353758 0)
(0.0885317 0.0336994 0)
(0.0896961 0.0319118 0)
(0.090857 0.0300086 0)
(0.0920064 0.0279861 0)
(0.0931348 0.0258427 0)
(0.0942296 0.023578 0)
(0.0952789 0.0211936 0)
(0.0962657 0.0186911 0)
(0.0971813 0.0160741 0)
(0.098 0.0133425 0)
(0.0987258 0.0105041 0)
(0.0992976 0.00756032 0)
(0.0997607 0.00455027 0)
(0.0999385 0.00148871 0)
(5.19284e-05 0.00137903 0)
(0.000203369 0.00424096 0)
(0.000607349 0.00708461 0)
(0.00111683 0.00988943 0)
(0.00177146 0.0126133 0)
(0.00251796 0.0152484 0)
(0.00335879 0.0177837 0)
(0.00427193 0.0202171 0)
(0.0052507 0.022545 0)
(0.00628116 0.0247655 0)
(0.00735354 0.0268764 0)
(0.00845658 0.0288769 0)
(0.00958118 0.0307671 0)
(0.0107191 0.0325489 0)
(0.0118639 0.034225 0)
(0.0130104 0.0357994 0)
(0.0141552 0.0372767 0)
(0.0152955 0.0386618 0)
(0.0164298 0.0399598 0)
(0.0175571 0.0411759 0)
(0.0186772 0.042315 0)
(0.01979 0.0433818 0)
(0.0208957 0.0443807 0)
(0.0219946 0.0453158 0)
(0.0230874 0.046191 0)
(0.0241744 0.0470096 0)
(0.0252563 0.047775 0)
(0.0263334 0.0484901 0)
(0.0274062 0.0491576 0)
(0.0284753 0.04978 0)
(0.029541 0.0503596 0)
(0.0306036 0.0508985 0)
(0.0316635 0.0513987 0)
(0.0327211 0.0518619 0)
(0.0337765 0.0522899 0)
(0.0348301 0.0526842 0)
(0.0358821 0.0530462 0)
(0.0369326 0.0533772 0)
(0.0379818 0.0536783 0)
(0.03903 0.0539507 0)
(0.0400772 0.0541953 0)
(0.0411237 0.054413 0)
(0.0421694 0.0546046 0)
(0.0432146 0.0547707 0)
(0.0442592 0.054912 0)
(0.0453035 0.055029 0)
(0.0463475 0.0551221 0)
(0.0473912 0.0551916 0)
(0.0484348 0.0552378 0)
(0.0494783 0.0552609 0)
(0.0505217 0.0552609 0)
(0.0515652 0.0552378 0)
(0.0526088 0.0551916 0)
(0.0536525 0.0551221 0)
(0.0546965 0.055029 0)
(0.0557408 0.0549121 0)
(0.0567855 0.0547707 0)
(0.0578307 0.0546046 0)
(0.0588764 0.054413 0)
(0.0599228 0.0541953 0)
(0.06097 0.0539507 0)
(0.0620182 0.0536783 0)
(0.0630675 0.0533772 0)
(0.064118 0.0530462 0)
(0.0651699 0.0526842 0)
(0.0662235 0.05229 0)
(0.067279 0.0518619 0)
(0.0683365 0.0513987 0)
(0.0693965 0.0508985 0)
(0.0704591 0.0503596 0)
(0.0715247 0.04978 0)
(0.0725938 0.0491576 0)
(0.0736667 0.0484901 0)
(0.0747438 0.0477751 0)
(0.0758256 0.0470097 0)
(0.0769126 0.046191 0)
(0.0780054 0.0453159 0)
(0.0791044 0.0443807 0)
(0.0802101 0.0433818 0)
(0.0813228 0.0423151 0)
(0.0824429 0.041176 0)
(0.0835703 0.0399599 0)
(0.0847046 0.0386618 0)
(0.0858449 0.0372767 0)
(0.0869896 0.0357995 0)
(0.0881362 0.034225 0)
(0.089281 0.0325489 0)
(0.0904189 0.0307671 0)
(0.0915435 0.0288769 0)
(0.0926465 0.0268764 0)
(0.0937189 0.0247656 0)
(0.0947494 0.0225451 0)
(0.0957281 0.0202171 0)
(0.0966412 0.0177837 0)
(0.0974821 0.0152484 0)
(0.0982286 0.0126134 0)
(0.0988832 0.00988949 0)
(0.0993927 0.00708466 0)
(0.0997966 0.004241 0)
(0.0999481 0.00137905 0)
(4.39156e-05 0.00128847 0)
(0.000172974 0.00397525 0)
(0.000525752 0.00666606 0)
(0.000980393 0.0093386 0)
(0.00157267 0.0119509 0)
(0.0022566 0.0144908 0)
(0.00303341 0.0169443 0)
(0.0038834 0.0193073 0)
(0.00480069 0.0215753 0)
(0.00577348 0.023746 0)
(0.00679361 0.025817 0)
(0.00785134 0.0277869 0)
(0.0089384 0.0296553 0)
(0.0100468 0.0314225 0)
(0.01117 0.0330902 0)
(0.0123023 0.034661 0)
(0.0134394 0.0361381 0)
(0.0145778 0.0375257 0)
(0.0157151 0.0388279 0)
(0.0168497 0.0400492 0)
(0.0179804 0.041194 0)
(0.0191067 0.0422668 0)
(0.0202282 0.0432715 0)
(0.021345 0.0442123 0)
(0.0224571 0.0450927 0)
(0.0235646 0.0459163 0)
(0.024668 0.0466863 0)
(0.0257676 0.0474055 0)
(0.0268635 0.0480767 0)
(0.0279562 0.0487025 0)
(0.0290459 0.0492851 0)
(0.030133 0.0498267 0)
(0.0312176 0.0503293 0)
(0.0323001 0.0507947 0)
(0.0333807 0.0512247 0)
(0.0344595 0.0516207 0)
(0.0355368 0.0519842 0)
(0.0366128 0.0523165 0)
(0.0376876 0.0526187 0)
(0.0387613 0.0528921 0)
(0.0398341 0.0531376 0)
(0.0409061 0.0533561 0)
(0.0419775 0.0535483 0)
(0.0430482 0.0537149 0)
(0.0441185 0.0538567 0)
(0.0451884 0.053974 0)
(0.046258 0.0540674 0)
(0.0473273 0.0541371 0)
(0.0483965 0.0541835 0)
(0.0494655 0.0542066 0)
(0.0505345 0.0542066 0)
(0.0516036 0.0541835 0)
(0.0526727 0.0541371 0)
(0.0537421 0.0540674 0)
(0.0548116 0.0539741 0)
(0.0558815 0.0538567 0)
(0.0569518 0.053715 0)
(0.0580226 0.0535483 0)
(0.0590939 0.0533561 0)
(0.0601659 0.0531376 0)
(0.0612387 0.0528921 0)
(0.0623125 0.0526188 0)
(0.0633872 0.0523165 0)
(0.0644632 0.0519842 0)
(0.0655405 0.0516207 0)
(0.0666194 0.0512247 0)
(0.0676999 0.0507948 0)
(0.0687824 0.0503293 0)
(0.0698671 0.0498267 0)
(0.0709541 0.0492851 0)
(0.0720439 0.0487025 0)
(0.0731365 0.0480767 0)
(0.0742325 0.0474055 0)
(0.075332 0.0466863 0)
(0.0764354 0.0459164 0)
(0.077543 0.0450928 0)
(0.078655 0.0442123 0)
(0.0797718 0.0432716 0)
(0.0808933 0.0422668 0)
(0.0820196 0.0411941 0)
(0.0831504 0.0400492 0)
(0.0842849 0.0388279 0)
(0.0854223 0.0375257 0)
(0.0865607 0.0361382 0)
(0.0876977 0.034661 0)
(0.08883 0.0330902 0)
(0.0899532 0.0314225 0)
(0.0910616 0.0296553 0)
(0.0921487 0.027787 0)
(0.0932064 0.025817 0)
(0.0942266 0.023746 0)
(0.0951993 0.0215753 0)
(0.0961166 0.0193074 0)
(0.0969666 0.0169444 0)
(0.0977434 0.0144908 0)
(0.0984273 0.011951 0)
(0.0990196 0.00933866 0)
(0.0994742 0.00666612 0)
(0.099827 0.0039753 0)
(0.0999561 0.00128849 0)
(3.7411e-05 0.0012119 0)
(0.000148092 0.00374465 0)
(0.000457317 0.0062958 0)
(0.00086403 0.00884309 0)
(0.00140127 0.0113469 0)
(0.00202989 0.0137924 0)
(0.00275049 0.0161642 0)
(0.00354528 0.0184557 0)
(0.0044086 0.0206615 0)
(0.00532997 0.0227788 0)
(0.00630232 0.0248048 0)
(0.00731718 0.0267382 0)
(0.00836717 0.0285776 0)
(0.00944493 0.0303231 0)
(0.010544 0.0319753 0)
(0.0116587 0.0335358 0)
(0.0127841 0.0350068 0)
(0.0139163 0.0363915 0)
(0.0150524 0.0376933 0)
(0.01619 0.0389158 0)
(0.0173274 0.0400631 0)
(0.0184634 0.041139 0)
(0.0195973 0.0421474 0)
(0.0207285 0.0430919 0)
(0.0218569 0.0439762 0)
(0.0229823 0.0448034 0)
(0.0241047 0.0455768 0)
(0.0252243 0.0462993 0)
(0.0263412 0.0469736 0)
(0.0274556 0.0476021 0)
(0.0285676 0.0481873 0)
(0.0296774 0.0487312 0)
(0.0307853 0.0492359 0)
(0.0318914 0.0497033 0)
(0.0329958 0.0501349 0)
(0.0340987 0.0505324 0)
(0.0352004 0.0508973 0)
(0.0363008 0.0512308 0)
(0.0374002 0.0515341 0)
(0.0384987 0.0518084 0)
(0.0395963 0.0520547 0)
(0.0406932 0.0522739 0)
(0.0417895 0.0524667 0)
(0.0428852 0.0526339 0)
(0.0439806 0.0527761 0)
(0.0450755 0.0528938 0)
(0.0461701 0.0529874 0)
(0.0472645 0.0530574 0)
(0.0483588 0.0531038 0)
(0.049453 0.053127 0)
(0.0505471 0.053127 0)
(0.0516412 0.0531038 0)
(0.0527355 0.0530574 0)
(0.0538299 0.0529874 0)
(0.0549245 0.0528938 0)
(0.0560195 0.0527761 0)
(0.0571148 0.0526339 0)
(0.0582105 0.0524667 0)
(0.0593068 0.0522739 0)
(0.0604037 0.0520547 0)
(0.0615014 0.0518085 0)
(0.0625998 0.0515341 0)
(0.0636992 0.0512308 0)
(0.0647997 0.0508973 0)
(0.0659013 0.0505324 0)
(0.0670042 0.0501349 0)
(0.0681087 0.0497033 0)
(0.0692147 0.049236 0)
(0.0703226 0.0487313 0)
(0.0714324 0.0481873 0)
(0.0725444 0.0476022 0)
(0.0736588 0.0469736 0)
(0.0747757 0.0462993 0)
(0.0758953 0.0455769 0)
(0.0770177 0.0448035 0)
(0.0781431 0.0439762 0)
(0.0792715 0.043092 0)
(0.0804027 0.0421474 0)
(0.0815366 0.0411391 0)
(0.0826726 0.0400632 0)
(0.08381 0.0389159 0)
(0.0849476 0.0376933 0)
(0.0860837 0.0363915 0)
(0.087216 0.0350068 0)
(0.0883414 0.0335358 0)
(0.089456 0.0319753 0)
(0.0905551 0.0303232 0)
(0.0916329 0.0285777 0)
(0.0926829 0.0267382 0)
(0.0936977 0.0248049 0)
(0.09467 0.0227788 0)
(0.0955914 0.0206616 0)
(0.0964547 0.0184558 0)
(0.0972495 0.0161642 0)
(0.0979701 0.0137925 0)
(0.0985987 0.011347 0)
(0.099136 0.00884315 0)
(0.0995427 0.00629586 0)
(0.0998519 0.0037447 0)
(0.0999626 0.00121192 0)
(3.22082e-05 0.00114734 0)
(0.000127969 0.00354426 0)
(0.000400586 0.00596757 0)
(0.000765879 0.00839644 0)
(0.00125474 0.0107948 0)
(0.00183419 0.0131468 0)
(0.00250478 0.0154364 0)
(0.00325052 0.0176554 0)
(0.00406588 0.0197974 0)
(0.00494125 0.0218586 0)
(0.00587019 0.0238362 0)
(0.00684517 0.0257283 0)
(0.00785959 0.0275337 0)
(0.00890676 0.0292517 0)