/*--------------------------------*- C++ -*----------------------------------*\
| =========                 |                                                 |
| \\      /  F ield         | foam-extend: Open Source CFD                    |
|  \\    /   O peration     | Version:     4.1                                |
|   \\  /    A nd           | Web:         http://www.foam-extend.org         |
|    \\/     M anipulation  |                                                 |
\*---------------------------------------------------------------------------*/
FoamFile
{
    version     2.0;
    format      ascii;
    class       volScalarField;
    location    "1";
    object      epsilonEq;
}
// * * * * * * * * * * * * * * * * * * * * * * * * * * * * * * * * * * * * * //

dimensions      [0 0 0 0 0 0 0];

internalField   nonuniform List<scalar> 
10000
(
0.0307939
0.0268481
0.0250548
0.0223196
0.0204776
0.0188115
0.0173625
0.0160483
0.0148831
0.0138602
0.0129779
0.0122262
0.0115934
0.0110657
0.0106294
0.0102712
0.00997912
0.00974263
0.00955258
0.00940123
0.00928206
0.00918965
0.00911949
0.00906785
0.00903161
0.00900819
0.00899541
0.00899145
0.00899475
0.00900399
0.00901803
0.00903586
0.00905662
0.00907955
0.00910397
0.00912929
0.00915497
0.00918055
0.0092056
0.00922975
0.00925268
0.00927409
0.00929372
0.00931137
0.00932683
0.00933995
0.00935061
0.00935868
0.00936411
0.00936684
0.00936684
0.00936411
0.00935868
0.00935061
0.00933995
0.00932683
0.00931137
0.00929372
0.00927409
0.00925268
0.00922975
0.0092056
0.00918055
0.00915497
0.00912929
0.00910397
0.00907955
0.00905662
0.00903586
0.00901803
0.009004
0.00899475
0.00899145
0.00899541
0.00900819
0.00903161
0.00906785
0.00911949
0.00918965
0.00928205
0.00940122
0.00955258
0.00974263
0.00997913
0.0102712
0.0106294
0.0110657
0.0115934
0.0122262
0.0129779
0.0138602
0.0148831
0.0160483
0.0173624
0.0188113
0.0204774
0.0223194
0.0250546
0.026848
0.0307938
0.0337864
0.0298119
0.0270335
0.0241823
0.0222747
0.0204694
0.0189109
0.0174631
0.0161751
0.0150323
0.014043
0.0131962
0.0124818
0.0118844
0.0113892
0.0109813
0.0106471
0.0103746
0.0101532
0.00997435
0.00983058
0.00971585
0.00962516
0.00955442
0.00950027
0.00945993
0.00943112
0.00941193
0.00940074
0.00939621
0.00939717
0.0094026
0.00941165
0.00942354
0.0094376
0.00945323
0.00946988
0.00948711
0.00950446
0.00952159
0.00953814
0.00955382
0.00956838
0.0095816
0.00959327
0.00960324
0.00961137
0.00961756
0.00962174
0.00962383
0.00962383
0.00962174
0.00961757
0.00961137
0.00960324
0.00959327
0.0095816
0.00956838
0.00955382
0.00953814
0.00952159
0.00950447
0.00948711
0.00946989
0.00945323
0.0094376
0.00942355
0.00941165
0.00940261
0.00939717
0.00939621
0.00940074
0.00941192
0.00943112
0.00945992
0.00950026
0.00955441
0.00962515
0.00971583
0.00983057
0.00997434
0.0101532
0.0103746
0.0106471
0.0109814
0.0113893
0.0118845
0.0124818
0.0131963
0.0140431
0.0150324
0.0161751
0.0174631
0.0189109
0.0204693
0.0222745
0.0241821
0.0270332
0.0298116
0.033786
0.0306024
0.0274124
0.0258245
0.0242249
0.0228247
0.0212645
0.0198185
0.0184184
0.0171438
0.0159887
0.0149728
0.0140901
0.013336
0.0126981
0.0121637
0.011719
0.0113508
0.0110471
0.0107975
0.0105929
0.0104256
0.0102891
0.0101783
0.0100888
0.010017
0.00995993
0.00991528
0.00988103
0.00985551
0.00983732
0.00982526
0.00981834
0.00981565
0.00981645
0.00982004
0.00982584
0.00983331
0.00984199
0.00985146
0.00986135
0.00987131
0.00988107
0.00989036
0.00989896
0.00990668
0.00991335
0.00991885
0.00992306
0.00992592
0.00992736
0.00992736
0.00992592
0.00992307
0.00991885
0.00991335
0.00990668
0.00989896
0.00989036
0.00988107
0.00987131
0.00986135
0.00985147
0.009842
0.00983332
0.00982584
0.00982004
0.00981645
0.00981565
0.00981834
0.00982526
0.00983731
0.0098555
0.00988102
0.00991527
0.00995991
0.0100169
0.0100888
0.0101783
0.0102891
0.0104255
0.0105929
0.0107975
0.0110471
0.0113508
0.011719
0.0121638
0.0126982
0.0133361
0.0140902
0.0149729
0.0159888
0.0171438
0.0184184
0.0198185
0.0212644
0.0228245
0.0242246
0.0258242
0.0274121
0.0306021
0.0271649
0.0259746
0.0244973
0.023238
0.0221593
0.0209635
0.0197939
0.0186107
0.0174942
0.0164497
0.015506
0.0146657
0.0139323
0.0132999
0.0127609
0.0123053
0.0119228
0.0116032
0.011337
0.0111161
0.0109329
0.0107814
0.0106564
0.0105533
0.0104687
0.0103995
0.0103433
0.010298
0.010262
0.0102337
0.0102119
0.0101958
0.0101843
0.0101766
0.0101723
0.0101705
0.0101709
0.0101729
0.0101762
0.0101804
0.0101852
0.0101902
0.0101953
0.0102002
0.0102048
0.0102088
0.0102122
0.0102148
0.0102166
0.0102175
0.0102175
0.0102166
0.0102148
0.0102122
0.0102088
0.0102048
0.0102002
0.0101953
0.0101902
0.0101852
0.0101804
0.0101762
0.0101729
0.0101709
0.0101705
0.0101723
0.0101766
0.0101843
0.0101958
0.0102119
0.0102337
0.0102619
0.010298
0.0103433
0.0103995
0.0104687
0.0105533
0.0106563
0.0107814
0.0109329
0.0111161
0.011337
0.0116032
0.0119228
0.0123054
0.012761
0.0133
0.0139324
0.0146658
0.0155061
0.0164498
0.0174943
0.0186108
0.0197939
0.0209634
0.0221592
0.0232378
0.0244972
0.0259744
0.0271647
0.0247121
0.0237315
0.0227222
0.0218615
0.0211057
0.020265
0.0193981
0.0184729
0.0175577
0.0166676
0.0158368
0.0150757
0.0143948
0.0137944
0.0132726
0.0128236
0.0124405
0.0121157
0.0118416
0.011611
0.0114174
0.0112553
0.0111196
0.0110062
0.0109115
0.0108325
0.0107669
0.0107126
0.0106678
0.010631
0.0106012
0.0105772
0.0105581
0.0105433
0.0105321
0.0105238
0.010518
0.0105142
0.0105121
0.0105113
0.0105114
0.0105123
0.0105136
0.0105152
0.0105169
0.0105186
0.01052
0.0105212
0.010522
0.0105224
0.0105224
0.010522
0.0105212
0.01052
0.0105186
0.0105169
0.0105152
0.0105136
0.0105123
0.0105114
0.0105113
0.0105121
0.0105142
0.010518
0.0105238
0.0105321
0.0105433
0.0105581
0.0105772
0.0106012
0.010631
0.0106677
0.0107126
0.0107669
0.0108325
0.0109114
0.0110061
0.0111196
0.0112553
0.0114174
0.011611
0.0118416
0.0121157
0.0124406
0.0128237
0.0132727
0.0137945
0.0143949
0.0150758
0.0158369
0.0166677
0.0175577
0.0184729
0.0193981
0.0202649
0.0211056
0.0218614
0.022722
0.0237314
0.024712
0.0224164
0.0219972
0.0212854
0.0206082
0.0199994
0.0193686
0.018729
0.0180367
0.017329
0.0166154
0.0159258
0.015274
0.0146742
0.0141318
0.0136495
0.0132261
0.0128583
0.0125413
0.0122698
0.0120383
0.0118417
0.011675
0.011534
0.0114147
0.0113139
0.0112289
0.0111571
0.0110967
0.0110459
0.0110033
0.0109676
0.010938
0.0109135
0.0108934
0.010877
0.0108638
0.0108533
0.0108451
0.0108388
0.0108341
0.0108306
0.0108282
0.0108265
0.0108255
0.0108249
0.0108247
0.0108246
0.0108246
0.0108247
0.0108247
0.0108247
0.0108247
0.0108246
0.0108246
0.0108247
0.0108249
0.0108255
0.0108265
0.0108282
0.0108306
0.0108341
0.0108388
0.0108451
0.0108533
0.0108638
0.010877
0.0108934
0.0109135
0.010938
0.0109676
0.0110032
0.0110458
0.0110967
0.0111571
0.0112289
0.0113139
0.0114147
0.011534
0.011675
0.0118417
0.0120383
0.0122698
0.0125413
0.0128583
0.0132262
0.0136496
0.0141319
0.0146743
0.0152742
0.015926
0.0166155
0.0173291
0.0180368
0.018729
0.0193685
0.0199993
0.0206081
0.0212854
0.0219972
0.0224164
0.0205266
0.0203595
0.0199015
0.0194144
0.0189421
0.0184644
0.0179921
0.0174852
0.016958
0.0164104
0.0158637
0.0153299
0.0148238
0.0143535
0.0139251
0.0135406
0.0131999
0.0129011
0.0126412
0.0124165
0.0122231
0.0120573
0.0119155
0.0117943
0.0116908
0.0116026
0.0115274
0.0114633
0.0114086
0.0113621
0.0113226
0.011289
0.0112606
0.0112366
0.0112165
0.0111996
0.0111856
0.0111739
0.0111644
0.0111566
0.0111503
0.0111452
0.0111412
0.0111381
0.0111357
0.0111339
0.0111325
0.0111316
0.011131
0.0111307
0.0111307
0.011131
0.0111316
0.0111325
0.0111339
0.0111357
0.0111381
0.0111412
0.0111452
0.0111503
0.0111566
0.0111644
0.0111739
0.0111856
0.0111996
0.0112165
0.0112366
0.0112606
0.011289
0.0113226
0.0113621
0.0114086
0.0114632
0.0115274
0.0116026
0.0116908
0.0117943
0.0119155
0.0120573
0.0122231
0.0124165
0.0126412
0.0129012
0.0132
0.0135407
0.0139252
0.0143536
0.0148239
0.01533
0.0158638
0.0164105
0.016958
0.0174852
0.0179921
0.0184644
0.0189421
0.0194143
0.0199014
0.0203595
0.0205267
0.018852
0.0189623
0.0187117
0.0183711
0.0180001
0.0176224
0.0172588
0.0168824
0.0164954
0.0160892
0.015674
0.0152566
0.014849
0.0144594
0.0140949
0.01376
0.0134568
0.0131858
0.0129459
0.0127354
0.0125518
0.0123925
0.0122547
0.0121358
0.0120334
0.0119453
0.0118695
0.0118043
0.0117482
0.0117
0.0116586
0.0116229
0.0115923
0.0115661
0.0115436
0.0115244
0.011508
0.0114942
0.0114824
0.0114725
0.0114642
0.0114573
0.0114516
0.0114469
0.0114432
0.0114403
0.011438
0.0114364
0.0114353
0.0114348
0.0114348
0.0114353
0.0114364
0.011438
0.0114403
0.0114432
0.0114469
0.0114516
0.0114573
0.0114642
0.0114725
0.0114824
0.0114941
0.011508
0.0115244
0.0115436
0.0115661
0.0115923
0.0116229
0.0116585
0.0117
0.0117482
0.0118043
0.0118695
0.0119453
0.0120334
0.0121358
0.0122547
0.0123925
0.0125519
0.0127354
0.012946
0.0131858
0.0134569
0.01376
0.014095
0.0144594
0.0148491
0.0152567
0.015674
0.0160893
0.0164955
0.0168824
0.0172588
0.0176224
0.0180001
0.0183711
0.0187117
0.0189623
0.0188522
0.0174423
0.0177065
0.0176167
0.0174114
0.0171412
0.0168511
0.0165708
0.0162893
0.0160072
0.0157131
0.0154093
0.015097
0.0147835
0.0144753
0.014179
0.0138996
0.0136408
0.0134046
0.0131916
0.0130016
0.0128334
0.0126856
0.0125563
0.0124436
0.0123457
0.0122607
0.012187
0.0121231
0.0120678
0.0120198
0.0119782
0.0119422
0.0119109
0.0118838
0.0118603
0.01184
0.0118224
0.0118073
0.0117943
0.0117831
0.0117736
0.0117655
0.0117587
0.0117531
0.0117484
0.0117447
0.0117419
0.0117398
0.0117384
0.0117377
0.0117377
0.0117384
0.0117398
0.0117419
0.0117447
0.0117484
0.0117531
0.0117587
0.0117655
0.0117736
0.0117831
0.0117942
0.0118073
0.0118224
0.01184
0.0118603
0.0118838
0.0119109
0.0119422
0.0119782
0.0120198
0.0120678
0.0121231
0.012187
0.0122607
0.0123457
0.0124436
0.0125563
0.0126856
0.0128335
0.0130016
0.0131916
0.0134046
0.0136409
0.0138996
0.014179
0.0144753
0.0147836
0.015097
0.0154093
0.0157131
0.0160072
0.0162893
0.0165708
0.0168511
0.0171412
0.0174114
0.0176167
0.0177066
0.0174425
0.0162264
0.0166029
0.0166356
0.0165406
0.0163606
0.0161472
0.0159346
0.015724
0.0155194
0.0153111
0.0150971
0.0148746
0.0146462
0.0144154
0.0141871
0.0139659
0.0137557
0.0135593
0.0133786
0.0132144
0.0130667
0.012935
0.0128183
0.0127156
0.0126254
0.0125465
0.0124776
0.0124174
0.0123649
0.0123192
0.0122793
0.0122444
0.012214
0.0121874
0.0121642
0.012144
0.0121263
0.0121109
0.0120975
0.0120859
0.012076
0.0120674
0.0120601
0.012054
0.0120489
0.0120448
0.0120417
0.0120393
0.0120378
0.012037
0.012037
0.0120378
0.0120393
0.0120417
0.0120448
0.0120489
0.012054
0.0120601
0.0120674
0.012076
0.0120859
0.0120975
0.0121109
0.0121263
0.0121439
0.0121642
0.0121874
0.012214
0.0122444
0.0122793
0.0123192
0.0123649
0.0124174
0.0124776
0.0125465
0.0126254
0.0127156
0.0128183
0.012935
0.0130667
0.0132144
0.0133787
0.0135594
0.0137558
0.013966
0.0141872
0.0144154
0.0146462
0.0148746
0.0150972
0.0153111
0.0155194
0.015724
0.0159345
0.0161472
0.0163606
0.0165406
0.0166356
0.016603
0.0162266
0.0151939
0.0156215
0.0157392
0.0157331
0.0156344
0.0154933
0.0153427
0.0151919
0.0150485
0.0149067
0.0147639
0.0146153
0.0144603
0.0142994
0.0141355
0.0139718
0.0138115
0.0136578
0.0135129
0.0133783
0.013255
0.0131433
0.0130429
0.0129534
0.012874
0.0128039
0.0127422
0.012688
0.0126405
0.0125988
0.0125622
0.0125301
0.0125019
0.0124772
0.0124554
0.0124363
0.0124196
0.0124049
0.012392
0.0123808
0.012371
0.0123626
0.0123554
0.0123493
0.0123442
0.0123401
0.0123368
0.0123344
0.0123329
0.0123321
0.0123321
0.0123329
0.0123344
0.0123368
0.0123401
0.0123442
0.0123493
0.0123554
0.0123626
0.012371
0.0123808
0.012392
0.0124049
0.0124196
0.0124363
0.0124554
0.0124771
0.0125019
0.0125301
0.0125622
0.0125988
0.0126405
0.012688
0.0127422
0.0128039
0.012874
0.0129534
0.0130429
0.0131433
0.013255
0.0133783
0.0135129
0.0136578
0.0138116
0.0139718
0.0141356
0.0142995
0.0144603
0.0146153
0.0147639
0.0149067
0.0150485
0.0151919
0.0153427
0.0154933
0.0156344
0.0157331
0.0157393
0.0156216
0.0151941
0.0143058
0.014752
0.014926
0.0149861
0.014956
0.0148795
0.0147863
0.0146886
0.0145967
0.0145086
0.0144228
0.0143344
0.0142413
0.0141418
0.0140365
0.0139272
0.0138161
0.0137058
0.0135986
0.0134964
0.0134005
0.0133118
0.0132307
0.0131574
0.0130916
0.0130329
0.0129807
0.0129346
0.0128938
0.0128579
0.0128262
0.0127983
0.0127738
0.0127521
0.012733
0.0127161
0.0127012
0.0126881
0.0126766
0.0126664
0.0126576
0.0126499
0.0126433
0.0126377
0.012633
0.0126291
0.0126261
0.0126239
0.0126224
0.0126216
0.0126216
0.0126224
0.0126239
0.0126261
0.0126291
0.012633
0.0126377
0.0126433
0.0126499
0.0126576
0.0126664
0.0126765
0.0126881
0.0127012
0.0127161
0.0127329
0.0127521
0.0127737
0.0127983
0.0128262
0.0128579
0.0128938
0.0129346
0.0129807
0.0130329
0.0130916
0.0131574
0.0132308
0.0133118
0.0134005
0.0134964
0.0135986
0.0137058
0.0138161
0.0139272
0.0140365
0.0141418
0.0142413
0.0143345
0.0144228
0.0145086
0.0145967
0.0146885
0.0147862
0.0148794
0.014956
0.0149861
0.014926
0.0147521
0.014306
0.013541
0.0139769
0.0141834
0.0142906
0.0143162
0.0142963
0.0142561
0.0142076
0.0141621
0.0141201
0.0140818
0.0140434
0.0140021
0.0139553
0.0139022
0.0138429
0.0137785
0.0137109
0.0136418
0.0135733
0.0135067
0.0134434
0.013384
0.0133293
0.0132794
0.0132342
0.0131937
0.0131575
0.0131253
0.0130968
0.0130716
0.0130493
0.0130295
0.0130121
0.0129966
0.0129829
0.0129708
0.0129601
0.0129507
0.0129424
0.0129351
0.0129287
0.0129232
0.0129184
0.0129145
0.0129112
0.0129087
0.0129068
0.0129055
0.0129049
0.0129049
0.0129055
0.0129068
0.0129087
0.0129112
0.0129145
0.0129184
0.0129232
0.0129287
0.012935
0.0129424
0.0129507
0.0129601
0.0129708
0.0129829
0.0129966
0.013012
0.0130295
0.0130492
0.0130716
0.0130968
0.0131253
0.0131575
0.0131937
0.0132342
0.0132794
0.0133293
0.0133841
0.0134434
0.0135067
0.0135733
0.0136419
0.0137109
0.0137785
0.0138429
0.0139022
0.0139553
0.0140021
0.0140433
0.0140818
0.0141201
0.0141621
0.0142076
0.0142561
0.0142963
0.0143162
0.0142907
0.0141834
0.0139771
0.0135412
0.012874
0.0132834
0.0135049
0.0136431
0.0137119
0.0137396
0.0137467
0.0137437
0.0137408
0.0137403
0.0137434
0.0137476
0.0137505
0.0137491
0.0137418
0.0137276
0.0137066
0.0136797
0.0136481
0.0136135
0.0135772
0.0135407
0.0135048
0.0134706
0.0134384
0.0134087
0.0133816
0.0133571
0.0133352
0.0133155
0.0132981
0.0132826
0.0132689
0.0132568
0.013246
0.0132364
0.013228
0.0132204
0.0132138
0.0132079
0.0132027
0.0131981
0.0131942
0.0131908
0.0131879
0.0131856
0.0131837
0.0131823
0.0131814
0.0131809
0.0131809
0.0131814
0.0131823
0.0131837
0.0131856
0.0131879
0.0131908
0.0131942
0.0131981
0.0132027
0.0132079
0.0132138
0.0132204
0.0132279
0.0132364
0.013246
0.0132567
0.0132689
0.0132826
0.0132981
0.0133155
0.0133352
0.0133571
0.0133816
0.0134087
0.0134384
0.0134706
0.0135048
0.0135407
0.0135772
0.0136135
0.0136481
0.0136797
0.0137066
0.0137276
0.0137418
0.0137491
0.0137504
0.0137476
0.0137434
0.0137403
0.0137408
0.0137436
0.0137467
0.0137396
0.0137119
0.0136432
0.0135049
0.0132835
0.0128741
0.0122861
0.0126582
0.0128818
0.0130385
0.0131396
0.0132061
0.0132546
0.0132928
0.0133297
0.0133674
0.0134081
0.01345
0.0134915
0.0135298
0.0135628
0.0135889
0.0136075
0.0136187
0.0136232
0.0136218
0.013616
0.0136069
0.0135957
0.0135832
0.0135704
0.0135577
0.0135455
0.0135342
0.0135238
0.0135144
0.013506
0.0134986
0.013492
0.0134861
0.0134809
0.0134763
0.0134723
0.0134687
0.0134654
0.0134626
0.01346
0.0134578
0.0134558
0.0134541
0.0134527
0.0134515
0.0134505
0.0134498
0.0134493
0.0134491
0.0134491
0.0134493
0.0134498
0.0134505
0.0134515
0.0134527
0.0134541
0.0134558
0.0134578
0.01346
0.0134626
0.0134654
0.0134686
0.0134723
0.0134763
0.0134809
0.0134861
0.0134919
0.0134986
0.013506
0.0135144
0.0135238
0.0135342
0.0135455
0.0135577
0.0135704
0.0135832
0.0135957
0.0136069
0.013616
0.0136219
0.0136232
0.0136187
0.0136075
0.0135889
0.0135628
0.0135297
0.0134915
0.01345
0.0134081
0.0133674
0.0133297
0.0132928
0.0132546
0.0132061
0.0131396
0.0130386
0.0128818
0.0126583
0.0122863
0.0117603
0.0120902
0.0123071
0.0124729
0.0125971
0.0126944
0.0127781
0.012853
0.0129264
0.0129998
0.0130752
0.0131517
0.0132278
0.0133013
0.0133702
0.0134326
0.0134873
0.0135337
0.0135721
0.0136029
0.013627
0.0136454
0.0136592
0.0136695
0.0136769
0.0136824
0.0136864
0.0136895
0.0136919
0.0136939
0.0136957
0.0136973
0.0136987
0.0137001
0.0137013
0.0137025
0.0137035
0.0137045
0.0137053
0.013706
0.0137067
0.0137072
0.0137076
0.0137079
0.0137082
0.0137084
0.0137085
0.0137086
0.0137087
0.0137087
0.0137087
0.0137087
0.0137086
0.0137085
0.0137084
0.0137082
0.0137079
0.0137076
0.0137072
0.0137067
0.013706
0.0137053
0.0137045
0.0137035
0.0137025
0.0137013
0.0137001
0.0136987
0.0136973
0.0136957
0.0136939
0.0136919
0.0136895
0.0136864
0.0136824
0.0136769
0.0136695
0.0136593
0.0136454
0.013627
0.0136029
0.0135721
0.0135337
0.0134873
0.0134326
0.0133702
0.0133013
0.0132278
0.0131516
0.0130752
0.0129998
0.0129264
0.012853
0.0127781
0.0126945
0.0125971
0.0124729
0.0123072
0.0120903
0.0117605
0.0112833
0.0115695
0.0117741
0.011942
0.0120821
0.0122035
0.0123165
0.0124235
0.01253
0.0126364
0.0127444
0.0128529
0.0129609
0.0130666
0.0131679
0.013263
0.0133505
0.0134295
0.0134996
0.0135609
0.0136139
0.0136595
0.0136984
0.0137316
0.01376
0.0137844
0.0138056
0.013824
0.0138403
0.0138546
0.0138675
0.013879
0.0138894
0.0138988
0.0139072
0.0139148
0.0139217
0.0139278
0.0139332
0.013938
0.0139423
0.0139459
0.0139491
0.0139518
0.013954
0.0139559
0.0139573
0.0139583
0.013959
0.0139594
0.0139594
0.013959
0.0139583
0.0139573
0.0139559
0.013954
0.0139518
0.0139491
0.0139459
0.0139422
0.013938
0.0139332
0.0139278
0.0139217
0.0139148
0.0139072
0.0138988
0.0138894
0.013879
0.0138675
0.0138546
0.0138403
0.013824
0.0138056
0.0137844
0.01376
0.0137316
0.0136984
0.0136595
0.0136139
0.0135609
0.0134996
0.0134295
0.0133505
0.013263
0.0131679
0.0130666
0.0129609
0.0128529
0.0127444
0.0126364
0.0125299
0.0124235
0.0123165
0.0122035
0.0120822
0.0119421
0.0117742
0.0115696
0.0112834
0.010844
0.0110876
0.0112768
0.0114423
0.0115927
0.0117324
0.0118695
0.0120043
0.0121403
0.0122771
0.0124154
0.0125539
0.0126918
0.0128272
0.0129583
0.0130835
0.0132011
0.01331
0.0134097
0.0134998
0.0135805
0.0136523
0.0137159
0.013772
0.0138217
0.0138655
0.0139044
0.0139389
0.0139697
0.0139973
0.014022
0.0140443
0.0140643
0.0140824
0.0140987
0.0141134
0.0141266
0.0141384
0.014149
0.0141583
0.0141666
0.0141738
0.01418
0.0141854
0.0141898
0.0141935
0.0141964
0.0141985
0.0141999
0.0142006
0.0142006
0.0141999
0.0141985
0.0141964
0.0141935
0.0141898
0.0141854
0.01418
0.0141738
0.0141666
0.0141583
0.014149
0.0141384
0.0141266
0.0141134
0.0140987
0.0140824
0.0140643
0.0140443
0.014022
0.0139973
0.0139697
0.0139389
0.0139044
0.0138655
0.0138217
0.013772
0.0137159
0.0136523
0.0135805
0.0134998
0.0134097
0.01331
0.0132011
0.0130835
0.0129583
0.0128272
0.0126918
0.0125539
0.0124154
0.0122771
0.0121403
0.0120043
0.0118695
0.0117324
0.0115928
0.0114423
0.0112769
0.0110877
0.0108441
0.0104336
0.0106375
0.0108099
0.0109701
0.0111268
0.0112803
0.0114372
0.0115957
0.0117579
0.0119223
0.0120886
0.0122553
0.0124212
0.0125845
0.0127434
0.0128964
0.0130419
0.0131786
0.0133058
0.0134229
0.0135298
0.0136269
0.0137145
0.0137932
0.013864
0.0139274
0.0139843
0.0140354
0.0140813
0.0141226
0.0141599
0.0141935
0.0142239
0.0142513
0.0142761
0.0142984
0.0143185
0.0143365
0.0143525
0.0143668
0.0143795
0.0143906
0.0144002
0.0144084
0.0144153
0.014421
0.0144255
0.0144288
0.014431
0.0144321
0.0144321
0.014431
0.0144288
0.0144255
0.014421
0.0144153
0.0144084
0.0144002
0.0143906
0.0143795
0.0143668
0.0143525
0.0143364
0.0143185
0.0142984
0.0142761
0.0142513
0.0142239
0.0141935
0.0141599
0.0141226
0.0140813
0.0140354
0.0139843
0.0139274
0.013864
0.0137933
0.0137145
0.0136269
0.0135298
0.0134229
0.0133058
0.0131786
0.0130418
0.0128964
0.0127434
0.0125844
0.0124212
0.0122553
0.0120886
0.0119223
0.0117579
0.0115957
0.0114372
0.0112803
0.0111269
0.0109702
0.0108099
0.0106376
0.0104337
0.0100452
0.0102132
0.0103688
0.0105222
0.0106825
0.0108464
0.0110195
0.0111982
0.0113835
0.0115728
0.011765
0.0119579
0.0121501
0.0123396
0.0125247
0.0127037
0.0128752
0.0130378
0.0131907
0.0133331
0.0134649
0.013586
0.0136967
0.0137975
0.013889
0.0139719
0.014047
0.0141148
0.0141762
0.0142317
0.014282
0.0143275
0.0143686
0.0144059
0.0144396
0.01447
0.0144974
0.014522
0.014544
0.0145636
0.0145809
0.0145962
0.0146094
0.0146208
0.0146303
0.0146382
0.0146444
0.014649
0.0146521
0.0146536
0.0146536
0.0146521
0.014649
0.0146444
0.0146382
0.0146303
0.0146208
0.0146094
0.0145962
0.0145809
0.0145636
0.014544
0.0145219
0.0144974
0.01447
0.0144396
0.0144059
0.0143686
0.0143275
0.014282
0.0142317
0.0141762
0.0141148
0.014047
0.0139719
0.013889
0.0137975
0.0136967
0.013586
0.0134649
0.0133331
0.0131907
0.0130378
0.0128751
0.0127037
0.0125246
0.0123396
0.0121501
0.0119579
0.011765
0.0115728
0.0113835
0.0111982
0.0110195
0.0108464
0.0106825
0.0105223
0.0103688
0.0102132
0.0100453
0.00967348
0.00980971
0.00994944
0.0100957
0.0102577
0.0104297
0.0106162
0.0108122
0.0110179
0.0112295
0.0114454
0.0116627
0.0118795
0.0120937
0.0123034
0.012507
0.0127028
0.0128898
0.0130668
0.0132331
0.0133883
0.0135323
0.0136651
0.0137872
0.0138989
0.014001
0.014094
0.0141786
0.0142556
0.0143255
0.0143891
0.0144468
0.0144991
0.0145466
0.0145896
0.0146285
0.0146635
0.0146951
0.0147234
0.0147486
0.0147709
0.0147906
0.0148077
0.0148224
0.0148347
0.0148449
0.014853
0.014859
0.0148629
0.0148649
0.0148649
0.0148629
0.0148589
0.014853
0.0148449
0.0148347
0.0148224
0.0148077
0.0147906
0.0147709
0.0147486
0.0147234
0.0146951
0.0146635
0.0146285
0.0145896
0.0145466
0.0144991
0.0144468
0.0143891
0.0143255
0.0142556
0.0141786
0.014094
0.014001
0.0138989
0.0137872
0.0136651
0.0135322
0.0133883
0.0132331
0.0130667
0.0128898
0.0127028
0.0125069
0.0123034
0.0120937
0.0118795
0.0116627
0.0114454
0.0112295
0.0110179
0.0108122
0.0106162
0.0104297
0.0102578
0.0100958
0.00994949
0.00980976
0.00967353
0.00931424
0.00942313
0.00954856
0.00968795
0.00985081
0.0100292
0.010227
0.0104381
0.0106618
0.0108935
0.011131
0.0113708
0.0116107
0.011848
0.012081
0.0123077
0.0125266
0.0127364
0.012936
0.0131248
0.0133021
0.0134678
0.0136217
0.0137642
0.0138955
0.0140162
0.0141269
0.0142282
0.0143207
0.0144051
0.0144821
0.0145522
0.014616
0.014674
0.0147266
0.0147743
0.0148173
0.0148561
0.0148909
0.014922
0.0149495
0.0149738
0.014995
0.0150132
0.0150285
0.0150411
0.0150511
0.0150586
0.0150635
0.0150659
0.0150659
0.0150635
0.0150586
0.0150511
0.0150411
0.0150285
0.0150132
0.014995
0.0149738
0.0149495
0.014922
0.0148909
0.0148561
0.0148173
0.0147743
0.0147266
0.014674
0.014616
0.0145522
0.0144821
0.0144051
0.0143207
0.0142282
0.0141269
0.0140162
0.0138955
0.0137642
0.0136217
0.0134678
0.0133021
0.0131248
0.012936
0.0127364
0.0125266
0.0123077
0.012081
0.011848
0.0116106
0.0113708
0.011131
0.0108935
0.0106618
0.0104381
0.0102271
0.0100292
0.00985085
0.00968799
0.00954861
0.00942317
0.00931428
0.00896434
0.00905014
0.00916321
0.00929651
0.00946001
0.00964393
0.00985165
0.010076
0.0103158
0.0105657
0.0108229
0.0110835
0.0113447
0.0116039
0.0118587
0.0121072
0.0123478
0.0125792
0.0128002
0.0130102
0.0132084
0.0133945
0.0135686
0.0137305
0.0138807
0.0140194
0.0141473
0.0142649
0.0143728
0.0144717
0.0145621
0.0146448
0.0147201
0.0147888
0.0148512
0.0149078
0.0149591
0.0150053
0.0150468
0.015084
0.015117
0.0151461
0.0151714
0.0151933
0.0152117
0.0152269
0.0152389
0.0152478
0.0152537
0.0152567
0.0152567
0.0152537
0.0152478
0.0152389
0.0152269
0.0152117
0.0151932
0.0151714
0.0151461
0.015117
0.015084
0.0150468
0.0150053
0.0149591
0.0149078
0.0148512
0.0147888
0.0147201
0.0146448
0.0145621
0.0144717
0.0143728
0.0142649
0.0141473
0.0140194
0.0138807
0.0137305
0.0135686
0.0133945
0.0132084
0.0130102
0.0128002
0.0125792
0.0123478
0.0121072
0.0118587
0.0116039
0.0113447
0.0110835
0.0108229
0.0105657
0.0103158
0.0100761
0.00985168
0.00964396
0.00946004
0.00929655
0.00916325
0.00905018
0.00896438
0.00862139
0.0086881
0.00879094
0.00891936
0.00908374
0.00927281
0.00948955
0.00972601
0.00998038
0.0102468
0.0105221
0.0108019
0.011083
0.0113624
0.0116377
0.0119068
0.0121679
0.0124196
0.0126609
0.0128908
0.0131087
0.0133143
0.0135074
0.0136879
0.0138561
0.0140122
0.0141568
0.0142903
0.0144133
0.0145263
0.0146301
0.0147252
0.0148122
0.0148915
0.0149639
0.0150296
0.0150892
0.015143
0.0151915
0.0152348
0.0152734
0.0153074
0.0153371
0.0153627
0.0153843
0.0154021
0.0154163
0.0154268
0.0154337
0.0154372
0.0154372
0.0154337
0.0154268
0.0154163
0.0154021
0.0153843
0.0153627
0.0153371
0.0153074
0.0152734
0.0152348
0.0151915
0.015143
0.0150892
0.0150296
0.0149639
0.0148915
0.0148122
0.0147252
0.0146301
0.0145263
0.0144133
0.0142903
0.0141568
0.0140122
0.0138561
0.0136879
0.0135074
0.0133143
0.0131087
0.0128908
0.0126609
0.0124196
0.0121679
0.0119068
0.0116377
0.0113624
0.011083
0.0108019
0.0105221
0.0102469
0.00998039
0.00972603
0.00948958
0.00927284
0.00908377
0.0089194
0.00879098
0.00868813
0.00862141
0.00828359
0.00833489
0.00842972
0.00855468
0.00872057
0.00891486
0.00914019
0.00938791
0.0096558
0.00993756
0.0102295
0.010527
0.0108266
0.0111249
0.0114194
0.0117078
0.0119882
0.0122591
0.0125194
0.0127681
0.0130047
0.0132287
0.0134397
0.0136379
0.0138232
0.013996
0.0141567
0.0143055
0.0144432
0.0145701
0.014687
0.0147945
0.0148929
0.014983
0.0150653
0.0151402
0.0152082
0.0152698
0.0153252
0.0153749
0.0154191
0.0154582
0.0154923
0.0155217
0.0155466
0.0155671
0.0155834
0.0155955
0.0156035
0.0156075
0.0156075
0.0156035
0.0155955
0.0155834
0.0155671
0.0155466
0.0155217
0.0154923
0.0154582
0.0154191
0.0153749
0.0153252
0.0152698
0.0152082
0.0151402
0.0150653
0.014983
0.0148929
0.0147945
0.014687
0.0145701
0.0144432
0.0143055
0.0141567
0.013996
0.0138232
0.0136379
0.0134397
0.0132286
0.0130047
0.0127681
0.0125194
0.0122591
0.0119882
0.0117078
0.0114194
0.0111249
0.0108266
0.010527
0.0102295
0.00993757
0.00965582
0.00938794
0.00914021
0.00891489
0.0087206
0.00855471
0.00842975
0.00833492
0.00828361
0.00794962
0.00798883
0.00807783
0.00820089
0.00836922
0.00856912
0.008803
0.00906156
0.00934222
0.00963829
0.00994578
0.0102597
0.0105765
0.0108925
0.0112049
0.0115113
0.0118098
0.0120988
0.012377
0.0126435
0.0128977
0.0131389
0.0133671
0.0135819
0.0137836
0.0139723
0.0141483
0.0143119
0.0144638
0.0146043
0.014734
0.0148535
0.0149633
0.015064
0.0151562
0.0152402
0.0153167
0.0153859
0.0154484
0.0155044
0.0155544
0.0155986
0.0156372
0.0156705
0.0156987
0.0157219
0.0157404
0.0157541
0.0157632
0.0157678
0.0157678
0.0157632
0.0157541
0.0157404
0.0157219
0.0156987
0.0156705
0.0156372
0.0155986
0.0155544
0.0155044
0.0154484
0.0153859
0.0153167
0.0152402
0.0151562
0.015064
0.0149633
0.0148535
0.014734
0.0146043
0.0144638
0.0143119
0.0141483
0.0139723
0.0137836
0.0135819
0.0133671
0.0131389
0.0128977
0.0126435
0.012377
0.0120988
0.0118098
0.0115113
0.0112049
0.0108925
0.0105765
0.0102597
0.00994579
0.00963831
0.00934224
0.00906158
0.00880302
0.00856915
0.00836925
0.00820092
0.00807786
0.00798885
0.00794964
0.0076185
0.00764856
0.00773386
0.00785665
0.00802853
0.00823471
0.00847739
0.00874669
0.00903969
0.00934937
0.00967148
0.0100009
0.0103336
0.010666
0.0109952
0.0113185
0.0116339
0.0119398
0.0122349
0.0125181
0.0127888
0.0130464
0.0132906
0.0135213
0.0137385
0.0139423
0.0141329
0.0143107
0.0144762
0.0146297
0.0147719
0.0149032
0.0150241
0.0151352
0.0152371
0.0153302
0.015415
0.015492
0.0155615
0.0156239
0.0156796
0.0157289
0.0157721
0.0158093
0.0158408
0.0158668
0.0158875
0.0159029
0.0159131
0.0159182
0.0159182
0.0159131
0.0159029
0.0158875
0.0158668
0.0158408
0.0158093
0.0157721
0.0157289
0.0156796
0.0156239
0.0155615
0.015492
0.015415
0.0153302
0.0152371
0.0151352
0.0150241
0.0149032
0.0147719
0.0146297
0.0144762
0.0143107
0.0141329
0.0139423
0.0137385
0.0135213
0.0132906
0.0130464
0.0127888
0.0125181
0.0122349
0.0119398
0.0116339
0.0113185
0.0109952
0.010666
0.0103336
0.0100009
0.0096715
0.00934939
0.00903971
0.00874671
0.00847742
0.00823474
0.00802856
0.00785668
0.00773388
0.00764858
0.00761851
0.00728951
0.00731302
0.00739665
0.00752083
0.00769751
0.00791085
0.00816283
0.00844299
0.00874816
0.00907098
0.00940703
0.00975093
0.0100987
0.0104465
0.0107912
0.0111303
0.0114615
0.0117832
0.0120941
0.012393
0.0126792
0.0129522
0.0132116
0.0134572
0.013689
0.0139071
0.0141116
0.014303
0.0144815
0.0146476
0.0148017
0.0149444
0.0150761
0.0151975
0.0153089
0.0154109
0.0155039
0.0155885
0.015665
0.0157338
0.0157952
0.0158496
0.0158972
0.0159384
0.0159733
0.0160021
0.0160249
0.016042
0.0160533
0.0160589
0.0160589
0.0160533
0.016042
0.0160249
0.0160021
0.0159733
0.0159384
0.0158972
0.0158496
0.0157952
0.0157338
0.015665
0.0155885
0.0155039
0.0154109
0.0153089
0.0151975
0.0150761
0.0149444
0.0148017
0.0146476
0.0144815
0.014303
0.0141116
0.0139071
0.013689
0.0134572
0.0132116
0.0129522
0.0126792
0.012393
0.0120941
0.0117832
0.0114615
0.0111303
0.0107912
0.0104465
0.0100987
0.00975095
0.00940705
0.009071
0.00874818
0.00844301
0.00816286
0.00791088
0.00769754
0.00752085
0.00739667
0.00731304
0.00728952
0.00696213
0.00698138
0.00706526
0.00719249
0.00737532
0.00759683
0.0078588
0.00815017
0.00846753
0.00880324
0.00915271
0.00951044
0.00987235
0.0102345
0.0105938
0.0109476
0.0112935
0.01163
0.0119556
0.0122692
0.01257
0.0128573
0.013131
0.0133906
0.0136362
0.0138678
0.0140856
0.0142898
0.0144807
0.0146588
0.0148244
0.0149781
0.0151203
0.0152515
0.0153722
0.0154828
0.015584
0.015676
0.0157594
0.0158344
0.0159015
0.0159609
0.0160131
0.0160581
0.0160964
0.0161279
0.016153
0.0161716
0.016184
0.0161902
0.0161902
0.016184
0.0161716
0.016153
0.0161279
0.0160964
0.0160581
0.0160131
0.0159609
0.0159015
0.0158344
0.0157594
0.015676
0.015584
0.0154828
0.0153722
0.0152515
0.0151203
0.0149781
0.0148244
0.0146588
0.0144807
0.0142898
0.0140856
0.0138678
0.0136362
0.0133906
0.013131
0.0128573
0.01257
0.0122692
0.0119556
0.01163
0.0112936
0.0109476
0.0105938
0.0102345
0.00987237
0.00951046
0.00915273
0.00880326
0.00846755
0.0081502
0.00785882
0.00759686
0.00737534
0.00719251
0.00706528
0.00698139
0.00696214
0.00663599
0.00665298
0.00673895
0.00687086
0.00706126
0.00729208
0.00756486
0.00786795
0.00819768
0.00854618