/*--------------------------------*- C++ -*----------------------------------*\
| =========                 |                                                 |
| \\      /  F ield         | foam-extend: Open Source CFD                    |
|  \\    /   O peration     | Version:     4.1                                |
|   \\  /    A nd           | Web:         http://www.foam-extend.org         |
|    \\/     M anipulation  |                                                 |
\*---------------------------------------------------------------------------*/
FoamFile
{
    version     2.0;
    format      ascii;
    class       volSymmTensorField;
    location    "1";
    object      epsilon;
}
// * * * * * * * * * * * * * * * * * * * * * * * * * * * * * * * * * * * * * //

dimensions      [0 0 0 0 0 0 0];

internalField   nonuniform List<symmTensor> 
10000
(
(0.0210332 0.0177749 5.08384e-19 -0.0187059 3.87826e-19 1.2319e-35)
(0.0213295 0.00984253 -1.73275e-19 -0.0207997 -2.58961e-20 5.54607e-37)
(0.0209921 0.00616168 -2.61414e-19 -0.0206169 -2.30021e-19 1.94837e-36)
(0.0189609 0.00384534 6.22334e-21 -0.0189251 -5.15682e-21 -1.09201e-38)
(0.0175173 0.0025484 -3.15656e-20 -0.0175828 7.70069e-21 -6.52274e-38)
(0.0161408 0.00166136 -9.34113e-20 -0.0162717 -4.4507e-20 4.71236e-37)
(0.0149225 0.00110531 8.23763e-20 -0.0150687 3.07234e-20 3.90356e-37)
(0.0138057 0.000729167 -1.23328e-20 -0.0139524 7.20809e-21 -4.57894e-38)
(0.0128115 0.000488448 -4.9027e-20 -0.0129481 -1.92486e-20 1.63041e-37)
(0.0119366 0.000329732 -3.2959e-20 -0.0120608 -7.68554e-21 6.50994e-38)
(0.0111812 0.000228201 -4.52814e-20 -0.0112924 -2.30916e-20 1.46693e-37)
(0.0105372 0.000162061 -6.93534e-20 -0.0106366 -2.26841e-20 3.87013e-37)
(0.00999492 0.000119183 -1.37294e-20 -0.010084 2.22605e-22 -1.41372e-39)
(0.00954256 9.04882e-05 -7.69316e-20 -0.00962293 -2.56167e-20 5.45536e-37)
(0.00916846 7.06431e-05 -8.96998e-20 -0.00924161 -3.43573e-20 8.04429e-37)
(0.00886132 5.60403e-05 3.64328e-20 -0.0089285 5.2207e-21 8.90707e-38)
(0.00861094 4.45873e-05 -3.40763e-20 -0.00867314 -5.41695e-21 9.24189e-38)
(0.00840827 3.49957e-05 -1.84659e-20 -0.00846628 -6.72305e-21 4.27094e-38)
(0.00824551 2.65696e-05 -4.41218e-20 -0.00829992 -1.40341e-20 2.69154e-37)
(0.00811604 1.89349e-05 -4.70326e-20 -0.00816729 -1.61905e-20 3.44796e-37)
(0.00801426 1.19245e-05 4.28803e-21 -0.00806269 -1.84757e-21 -1.58714e-38)
(0.00793553 5.47551e-06 -3.99746e-20 -0.00798138 -1.70215e-20 2.90404e-37)
(0.00787598 -4.19745e-07 5.24711e-22 -0.00791943 -2.50645e-22 -5.30706e-40)
(0.00783238 -5.74959e-06 -1.74588e-20 -0.00787358 -8.46807e-21 5.37952e-38)
(0.00780205 -1.04994e-05 -2.5443e-20 -0.00784112 -1.2557e-20 1.87646e-37)
(0.00778278 -1.46611e-05 1.60386e-20 -0.00781982 8.39731e-21 7.21395e-38)
(0.00777268 -1.82363e-05 -1.11755e-20 -0.00780777 -6.2001e-21 3.93877e-38)
(0.00777017 -2.12366e-05 -6.08002e-22 -0.0078034 3.24021e-22 6.86222e-40)
(0.00777392 -2.36821e-05 -1.07035e-20 -0.00780537 -5.76661e-21 2.44224e-38)
(0.00778276 -2.55998e-05 -1.35679e-20 -0.00781252 -1.153e-20 1.72301e-37)
(0.00779572 -2.70214e-05 2.1656e-20 -0.00782385 1.39763e-20 1.79259e-37)
(0.00781193 -2.79812e-05 2.70478e-21 -0.00783852 2.07483e-21 4.39365e-39)
(0.00783064 -2.85151e-05 -1.17118e-20 -0.00785577 -7.48417e-21 4.75451e-38)
(0.00785119 -2.86589e-05 -6.50204e-21 -0.00787494 -3.24215e-21 6.86547e-39)
(0.00787299 -2.84477e-05 -2.48093e-21 -0.00789544 -5.31612e-21 3.44128e-38)
(0.00789552 -2.79151e-05 1.63534e-20 -0.00791676 1.36826e-20 1.75494e-37)
(0.00791833 -2.7093e-05 2.09596e-20 -0.00793844 4.55272e-21 2.20752e-52)
(0.00794101 -2.60113e-05 -1.94528e-20 -0.00796007 -1.97964e-20 3.77288e-37)
(0.00796319 -2.4698e-05 -2.68373e-20 -0.00798129 -6.66384e-21 1.4111e-38)
(0.00798455 -2.31789e-05 -4.05041e-23 -0.00800177 -5.78887e-21 3.74731e-38)
(0.00800481 -2.14782e-05 2.66787e-20 -0.00802123 5.81229e-21 1.23079e-38)
(0.00802372 -1.96182e-05 -4.44819e-21 -0.00803942 -8.51202e-21 7.21004e-38)
(0.00804104 -1.76196e-05 -1.6053e-20 -0.00805611 2.20639e-22 4.67358e-40)
(0.00805661 -1.55019e-05 -5.92459e-21 -0.00807112 -1.50763e-20 2.25296e-37)
(0.00807024 -1.32833e-05 -7.83797e-21 -0.00808428 1.44721e-21 3.06466e-39)
(0.00808181 -1.09808e-05 1.88411e-20 -0.00809545 7.55675e-21 4.80065e-38)
(0.00809119 -8.61103e-06 3.39092e-21 -0.00810452 -4.0719e-21 1.72454e-38)
(0.00809831 -6.18946e-06 4.60514e-21 -0.0081114 2.30275e-21 4.87631e-39)
(0.00810309 -3.73129e-06 -1.5343e-21 -0.00811602 -1.73085e-20 2.95305e-37)
(0.00810549 -1.2513e-06 -2.13916e-20 -0.00811835 1.99365e-21 4.2217e-39)
(0.00810549 1.23594e-06 1.71006e-20 -0.00811835 2.02468e-21 4.28755e-39)
(0.00810309 3.71594e-06 5.71238e-22 -0.00811602 -6.44484e-21 4.09429e-38)
(0.00809831 6.17413e-06 -3.17912e-22 -0.0081114 2.14706e-21 4.54662e-39)
(0.00809119 8.59573e-06 8.92478e-22 -0.00810452 -4.29047e-21 1.81711e-38)
(0.00808181 1.09656e-05 -1.30511e-20 -0.00809545 -1.39935e-20 2.09116e-37)
(0.00807024 1.32681e-05 1.70813e-20 -0.00808428 1.12293e-20 1.4403e-37)
(0.00805661 1.54868e-05 3.35811e-21 -0.00807112 -8.54559e-21 7.23847e-38)
(0.00804105 1.76046e-05 -5.23141e-21 -0.00805612 2.61038e-21 5.52768e-39)
(0.00802372 1.96032e-05 2.22406e-21 -0.00803942 -4.25601e-21 1.80251e-38)
(0.00800481 2.14634e-05 -1.06176e-20 -0.00802124 -8.27733e-21 8.86392e-38)
(0.00798455 2.31642e-05 1.40755e-20 -0.00800178 7.28193e-21 7.79804e-38)
(0.00796319 2.46834e-05 6.17273e-21 -0.00798129 -8.45049e-21 7.1579e-38)
(0.00794101 2.59969e-05 6.71357e-21 -0.00796008 4.40193e-22 9.32331e-40)
(0.00791833 2.70787e-05 7.39893e-21 -0.00793845 -8.40513e-21 7.11947e-38)
(0.00789552 2.7901e-05 -1.92556e-20 -0.00791677 -6.86664e-21 1.02618e-37)
(0.00787299 2.84337e-05 -7.37729e-21 -0.00789545 1.88179e-20 4.40606e-37)
(0.00785119 2.8645e-05 4.69129e-21 -0.00787494 -4.16895e-21 1.76563e-38)
(0.00783065 2.85012e-05 -2.41483e-20 -0.00785577 1.12221e-20 7.12904e-38)
(0.00781194 2.79672e-05 -5.40952e-21 -0.00783853 4.14968e-21 1.75746e-38)
(0.00779573 2.7007e-05 1.34019e-20 -0.00782386 -1.11108e-20 1.42508e-37)
(0.00778277 2.5585e-05 -1.20725e-21 -0.00781252 6.93513e-21 1.03639e-37)
(0.00777392 2.36665e-05 6.588e-21 -0.00780537 -4.13213e-21 1.75002e-38)
(0.00777017 2.12198e-05 6.54559e-21 -0.0078034 -4.45449e-22 -3.77115e-39)
(0.00777268 1.82179e-05 3.39159e-20 -0.00780777 -1.83866e-20 3.11479e-37)
(0.00778278 1.46406e-05 -1.70897e-20 -0.00781981 7.25353e-21 -7.7669e-38)
(0.00780205 1.04762e-05 -7.81111e-22 -0.00784112 -1.04846e-23 -1.93686e-40)
(0.00783237 5.72307e-06 2.66246e-20 -0.00787358 -1.25048e-20 1.58878e-37)
(0.00787598 3.89237e-07 -2.60664e-20 -0.00791943 1.35802e-20 5.7513e-38)
(0.00793553 -5.51062e-06 1.9846e-20 -0.00798138 -8.45066e-21 7.15791e-38)
(0.00801426 -1.19647e-05 -3.20026e-21 -0.00806269 7.59271e-21 -8.13011e-38)
(0.00811604 -1.89806e-05 -2.08897e-20 -0.00816729 9.26125e-21 5.88332e-38)
(0.00824551 -2.66206e-05 1.16251e-20 -0.00829992 -9.53055e-21 -2.01809e-38)
(0.00840827 -3.50516e-05 2.7474e-21 -0.00846628 -3.95141e-21 -8.36701e-39)
(0.00861094 -4.46468e-05 -1.36758e-20 -0.00867315 9.80996e-21 -2.24961e-51)
(0.00886132 -5.61016e-05 -2.77752e-20 -0.0089285 1.50923e-20 6.39165e-38)
(0.00916847 -7.07032e-05 -2.17036e-20 -0.00924162 7.33875e-21 4.66207e-38)
(0.00954257 -9.05433e-05 4.90803e-21 -0.00962294 -1.03968e-20 -4.40299e-38)
(0.00999493 -0.000119228 1.90206e-20 -0.010084 -3.89248e-21 2.47285e-38)
(0.0105372 -0.00016209 -4.25589e-20 -0.0106366 2.1616e-20 1.37318e-37)
(0.0111812 -0.000228208 -1.24298e-20 -0.0112924 1.27001e-21 5.37909e-39)
(0.0119365 -0.000329711 2.28074e-34 -0.0120608 -1.81796e-34 1.40049e-67)
(0.0128114 -0.000488394 9.78562e-21 -0.0129481 -1.31903e-20 -2.79317e-38)
(0.0138056 -0.000729077 -1.14199e-20 -0.0139524 3.69317e-21 7.82057e-39)
(0.0149224 -0.00110518 -2.48261e-20 -0.0150686 7.97728e-21 3.37849e-38)
(0.0161407 -0.00166121 1.85666e-20 -0.0162716 -9.56999e-22 4.05166e-39)
(0.0175172 -0.00254822 -7.23613e-20 -0.0175827 4.02793e-20 2.55889e-37)
(0.0189608 -0.00384518 -4.25606e-20 -0.018925 2.0185e-20 8.54878e-38)
(0.020992 -0.00616154 -1.17953e-19 -0.0206168 4.49085e-20 5.70583e-37)
(0.0213294 -0.00984245 -3.55128e-20 -0.0207995 -1.32695e-20 -8.43006e-38)
(0.0210331 -0.0177749 -1.19406e-20 -0.0187058 -5.2336e-20 -2.21651e-37)
(0.00894696 0.0277467 -9.47297e-20 -0.0096246 -6.35394e-19 0)
(0.0143124 0.0211507 2.18712e-19 -0.0152937 6.03262e-19 0)
(0.0179268 0.0150649 9.1928e-20 -0.0179148 1.86119e-19 0)
(0.0181431 0.0104443 -2.02829e-20 -0.0181616 -7.82307e-21 0)
(0.0178888 0.00741872 5.94597e-20 -0.0177248 8.27639e-20 0)
(0.0169963 0.00527747 -4.22401e-20 -0.01685 -9.38785e-20 0)
(0.0160074 0.00382527 -6.5998e-20 -0.0158411 -7.61268e-20 0)
(0.0149375 0.00278662 8.47736e-20 -0.0147914 1.12788e-19 0)
(0.0139233 0.00206109 3.35493e-20 -0.0137878 3.77703e-20 0)
(0.012986 0.00154195 -2.27314e-20 -0.0128674 -2.8041e-20 0)
(0.0121579 0.00117332 6.25367e-20 -0.0120518 8.1921e-20 0)
(0.0114393 0.00090667 -2.44378e-20 -0.0113451 -1.80182e-20 0)
(0.0108285 0.000712175 1.55e-20 -0.0107435 1.13752e-20 0)
(0.0103151 0.000566913 3.66242e-20 -0.0102379 5.88182e-20 0)
(0.00988837 0.000456023 -6.33106e-20 -0.00981725 -1.05215e-19 0)
(0.00953602 0.000368871 -8.29847e-21 -0.00946985 -2.96264e-21 0)
(0.00924694 0.000298499 1.5499e-20 -0.00918473 3.24463e-20 0)
(0.00901087 0.000240148 2.28877e-20 -0.00895193 2.05107e-20 0)
(0.00881898 0.000190721 6.38069e-21 -0.00876276 1.61452e-20 0)
(0.00866371 0.000148152 -4.20258e-20 -0.0086098 -6.20839e-20 0)
(0.00853874 0.000111098 9.04074e-21 -0.00848685 1.06071e-20 0)
(0.00843885 7.86542e-05 2.35034e-20 -0.00838873 2.41867e-20 0)
(0.00835973 5.02099e-05 -1.79542e-20 -0.00831122 -1.91631e-20 0)
(0.00829785 2.53265e-05 3.97855e-20 -0.0082508 4.03331e-20 0)
(0.00825031 3.67265e-06 -3.09988e-20 -0.00820461 -2.94548e-20 0)
(0.00821474 -1.50206e-05 -1.36791e-20 -0.0081703 -1.16904e-20 0)
(0.00818916 -3.09854e-05 9.50853e-21 -0.00814589 7.03235e-21 0)
(0.00817192 -4.44317e-05 -1.41266e-20 -0.00812975 -1.72154e-20 0)
(0.00816166 -5.55555e-05 3.248e-20 -0.00812051 2.0995e-20 0)
(0.00815718 -6.45422e-05 -4.03019e-20 -0.008117 -2.6469e-20 0)
(0.0081575 -7.15683e-05 -3.61774e-20 -0.00811823 -2.15994e-20 0)
(0.00816174 -7.68015e-05 3.91329e-20 -0.00812331 2.41591e-20 0)
(0.00816915 -8.04005e-05 1.29741e-20 -0.00813151 7.44903e-21 0)
(0.00817906 -8.25149e-05 4.57628e-21 -0.00814215 2.43666e-21 0)
(0.00819088 -8.32849e-05 -3.49364e-20 -0.00815466 -1.71973e-20 0)
(0.00820411 -8.28412e-05 -1.55627e-20 -0.00816851 -3.66576e-21 0)
(0.00821826 -8.13054e-05 4.37546e-20 -0.00818324 1.82045e-20 0)
(0.00823294 -7.87903e-05 1.04563e-20 -0.00819845 7.65212e-21 0)
(0.00824776 -7.54004e-05 2.48396e-22 -0.00821375 8.57019e-23 0)
(0.00826241 -7.12326e-05 -1.31222e-20 -0.00822884 -4.084e-21 0)
(0.00827658 -6.63765e-05 -2.21572e-20 -0.00824341 -6.16991e-21 0)
(0.00829004 -6.09158e-05 5.7344e-21 -0.00825721 2.18567e-20 0)
(0.00830253 -5.49282e-05 3.20233e-20 -0.00827002 1.10666e-20 0)
(0.00831389 -4.84867e-05 1.73455e-21 -0.00828163 8.76852e-21 0)
(0.00832392 -4.166e-05 -3.55039e-20 -0.00829189 -5.5306e-21 0)
(0.00833249 -3.45132e-05 -4.41118e-21 -0.00830066 -5.5894e-22 0)
(0.00833949 -2.71085e-05 6.26193e-21 -0.0083078 1.80255e-20 0)
(0.00834481 -1.95055e-05 2.23399e-20 -0.00831324 1.55971e-21 0)
(0.0083484 -1.17623e-05 1.18294e-21 -0.00831691 2.64176e-20 0)
(0.00835021 -3.93541e-06 -1.78681e-20 -0.00831875 4.15437e-21 0)
(0.00835021 3.91929e-06 -6.5655e-23 -0.00831875 4.40391e-21 0)
(0.0083484 1.17462e-05 -7.88541e-22 -0.00831691 1.76117e-20 0)
(0.00834481 1.94894e-05 -4.41771e-21 -0.00831324 3.08428e-22 0)
(0.00833949 2.70924e-05 3.32616e-20 -0.0083078 1.85015e-20 0)
(0.00833249 3.44971e-05 -2.98727e-20 -0.00830066 9.06541e-20 0)
(0.00832392 4.16439e-05 -2.37322e-20 -0.0082919 -6.5204e-20 0)
(0.00831389 4.84706e-05 1.79208e-20 -0.00828164 1.77952e-20 0)
(0.00830254 5.49121e-05 -4.39533e-21 -0.00827002 9.47786e-22 0)
(0.00829004 6.08997e-05 2.19945e-20 -0.00825721 1.09295e-20 0)
(0.00827659 6.63604e-05 -3.9348e-20 -0.00824341 9.15067e-20 0)
(0.00826241 7.12164e-05 9.68057e-22 -0.00822884 -7.50201e-20 0)
(0.00824776 7.53842e-05 9.78225e-21 -0.00821375 1.563e-20 0)
(0.00823294 7.8774e-05 -1.04563e-20 -0.00819845 7.65211e-21 0)
(0.00821826 8.12889e-05 2.74683e-20 -0.00818324 2.74451e-21 0)
(0.00820411 8.28244e-05 -6.99707e-20 -0.00816851 9.65538e-20 0)
(0.00819089 8.32679e-05 -3.45735e-21 -0.00815466 -5.0232e-20 0)
(0.00817906 8.24975e-05 2.53146e-20 -0.00814215 -1.33346e-21 0)
(0.00816915 8.03826e-05 2.56811e-21 -0.00813151 -4.30479e-21 0)
(0.00816174 7.6783e-05 3.63841e-20 -0.00812331 -1.98586e-20 0)
(0.0081575 7.1549e-05 -7.36214e-20 -0.00811823 9.37465e-20 0)
(0.00815718 6.45221e-05 1.44127e-20 -0.008117 -4.58328e-20 0)
(0.00816165 5.55344e-05 -9.69462e-23 -0.00812051 7.20763e-21 0)
(0.00817192 4.44095e-05 4.32618e-21 -0.00812975 -3.4846e-21 0)
(0.00818915 3.09621e-05 -2.5108e-21 -0.00814588 1.32232e-20 0)
(0.00821473 1.49962e-05 -1.06835e-19 -0.00817029 1.10155e-19 0)
(0.0082503 -3.69823e-06 2.81524e-20 -0.0082046 -3.18482e-20 0)
(0.00829784 -2.53531e-05 -8.83831e-21 -0.00825079 7.88496e-21 0)
(0.00835971 -5.02374e-05 4.18081e-21 -0.0083112 -5.04724e-21 0)
(0.00843884 -7.86823e-05 6.90989e-21 -0.00838872 -1.31265e-20 0)
(0.00853873 -0.000111126 -1.04308e-19 -0.00848684 9.03691e-20 0)
(0.0086637 -0.00014818 9.20611e-20 -0.00860979 -6.78387e-20 0)
(0.00881897 -0.000190748 -1.13361e-19 -0.00876276 9.59187e-20 0)
(0.00901087 -0.000240174 -4.77031e-21 -0.00895193 6.29336e-21 0)
(0.00924695 -0.000298523 3.4418e-21 -0.00918474 -8.46736e-21 0)
(0.00953604 -0.000368893 -1.27553e-19 -0.00946987 9.58232e-20 0)
(0.0098884 -0.000456042 1.55111e-19 -0.00981728 -1.1493e-19 0)
(0.0103152 -0.000566929 -1.07882e-19 -0.010238 7.13896e-20 0)
(0.0108285 -0.000712188 3.1e-20 -0.0107436 -2.27504e-20 0)
(0.0114393 -0.000906681 -3.96592e-21 -0.0113452 1.22058e-20 0)
(0.0121579 -0.00117332 -1.42149e-19 -0.0120519 9.59686e-20 0)
(0.0129861 -0.00154196 1.51609e-19 -0.0128674 -1.20381e-19 0)
(0.0139233 -0.0020611 -1.99822e-19 -0.0137878 1.78561e-19 0)
(0.0149376 -0.00278663 -4.7133e-20 -0.0147914 4.40787e-20 0)
(0.0160074 -0.00382527 3.55666e-20 -0.0158411 -5.09686e-20 0)
(0.0169962 -0.00527748 -2.2937e-19 -0.0168499 1.9726e-19 0)
(0.0178886 -0.00741871 2.19402e-19 -0.0177247 -1.89297e-19 0)
(0.0181428 -0.0104442 -1.99672e-19 -0.0181613 2.16197e-19 0)
(0.0179265 -0.0150649 4.37327e-20 -0.0179145 -4.74194e-20 0)
(0.0143122 -0.0211505 2.78936e-20 -0.0152935 -7.37206e-20 0)
(0.00894684 -0.0277463 -3.38515e-20 -0.00962448 2.87539e-20 0)
(0.00448263 0.0261961 -7.2326e-21 -0.00353415 -3.50516e-21 0)
(0.00932589 0.0217819 -1.92156e-20 -0.00955488 -7.1029e-20 0)
(0.0142059 0.0173767 4.47259e-36 -0.0139524 -3.01066e-35 0)
(0.0159326 0.0136324 -5.99924e-21 -0.0159603 -8.44932e-21 0)
(0.0167437 0.010552 -3.59446e-21 -0.0166856 -1.88118e-20 0)
(0.0165295 0.00810856 5.04553e-20 -0.0165393 8.27581e-20 0)
(0.0159916 0.00623988 4.07894e-20 -0.0159862 4.27965e-20 0)
(0.0152037 0.00480848 8.60368e-21 -0.0152138 -7.61958e-21 0)
(0.0143684 0.00372723 9.66382e-20 -0.0143745 1.05212e-19 0)
(0.0135338 0.00290668 8.77215e-20 -0.0135424 8.31882e-20 0)
(0.0127603 0.00228652 -6.75527e-21 -0.0127668 -1.0222e-20 0)
(0.0120637 0.00181448 8.34904e-20 -0.0120697 7.06495e-20 0)
(0.0114553 0.00145329 -2.05578e-37 -0.0114597 6.26884e-36 0)
(0.0109324 0.00117342 6.45445e-20 -0.0109359 4.99874e-20 0)
(0.0104896 0.000953679 6.18912e-20 -0.0104921 4.81445e-20 0)
(0.0101182 0.000778176 -4.74432e-20 -0.0101198 -3.40311e-20 0)
(0.00980904 0.000635594 4.42853e-20 -0.0098099 3.50279e-20 0)
(0.00955295 0.000517734 -2.21641e-35 -0.00955319 -2.89858e-35 0)
(0.00934172 0.000418805 6.75354e-20 -0.00934139 5.96248e-20 0)
(0.00916804 0.000334677 2.21648e-20 -0.0091672 1.88442e-20 0)
(0.00902565 0.000262429 -3.56198e-20 -0.00902434 -3.43063e-20 0)
(0.00890928 0.000199965 4.39133e-20 -0.00890753 4.27087e-20 0)
(0.00881457 0.000145767 -1.83959e-20 -0.00881238 -1.85594e-20 0)
(0.00873788 9.87084e-05 1.70482e-20 -0.00873528 1.87709e-20 0)
(0.00867625 5.79281e-05 4.18455e-20 -0.00867324 4.61769e-20 0)
(0.00862723 2.27443e-05 -1.47594e-20 -0.00862381 -1.97142e-20 0)
(0.00858879 -7.40247e-06 4.51453e-20 -0.00858497 4.59056e-20 0)
(0.00855927 -3.29876e-05 3.53137e-21 -0.00855505 4.52901e-21 0)
(0.00853725 -5.44268e-05 -7.11757e-21 -0.00853265 7.44871e-21 0)
(0.00852155 -7.20915e-05 2.39344e-20 -0.00851657 3.77698e-20 0)
(0.00851117 -8.63189e-05 -1.47845e-20 -0.00850582 -3.05555e-20 0)
(0.00850522 -9.74181e-05 7.27389e-21 -0.00849952 7.16773e-21 0)
(0.00850297 -0.000105674 -7.09527e-21 -0.00849692 -6.98018e-21 0)
(0.00850375 -0.00011135 5.18198e-21 -0.00849737 1.56908e-20 0)
(0.00850698 -0.00011469 1.13901e-20 -0.00850028 2.27561e-20 0)
(0.00851213 -0.000115919 -1.23158e-20 -0.00850514 -3.43116e-20 0)
(0.00851876 -0.000115246 2.64034e-20 -0.00851148 1.8038e-20 0)
(0.00852644 -0.000112866 -9.73601e-22 -0.0085189 7.36911e-21 0)
(0.00853482 -0.000108957 -2.09751e-20 -0.00852703 -2.99064e-21 0)
(0.00854355 -0.000103686 1.19341e-20 -0.00853554 2.42062e-20 0)
(0.00855237 -9.72078e-05 -2.06035e-21 -0.00854414 -2.14015e-20 0)
(0.00856099 -8.96671e-05 -9.22067e-21 -0.00855258 -1.9188e-20 0)
(0.00856921 -8.11992e-05 -5.56543e-21 -0.00856063 -5.47491e-21 0)
(0.00857681 -7.19311e-05 8.14187e-21 -0.00856808 1.92132e-20 0)
(0.00858364 -6.19831e-05 -3.74112e-21 -0.00857478 -2.26973e-20 0)
(0.00858954 -5.14694e-05 -3.66117e-21 -0.00858058 -2.72551e-20 0)
(0.0085944 -4.04994e-05 2.18304e-21 -0.00858536 -2.22948e-20 0)
(0.00859813 -2.91786e-05 -6.23908e-21 -0.00858902 -2.30415e-20 0)
(0.00860065 -1.76094e-05 -4.33943e-21 -0.0085915 4.62349e-21 0)
(0.00860193 -5.89183e-06 -3.36834e-22 -0.00859276 -2.27448e-20 0)
(0.00860193 5.87496e-06 4.89055e-21 -0.00859276 -2.2806e-20 0)
(0.00860065 1.75925e-05 4.35096e-21 -0.0085915 4.36474e-21 0)
(0.00859813 2.91618e-05 -2.86465e-21 -0.00858902 -2.24284e-20 0)
(0.0085944 4.04825e-05 -8.96211e-20 -0.00858536 -9.52172e-21 0)
(0.00858954 5.14525e-05 7.41251e-20 -0.00858058 1.80035e-20 0)
(0.00858364 6.19661e-05 9.89244e-20 -0.00857479 -5.93823e-20 0)
(0.00857681 7.1914e-05 -7.58281e-20 -0.00856809 2.66848e-20 0)
(0.00856921 8.11821e-05 5.14451e-21 -0.00856063 -2.26598e-20 0)
(0.00856099 8.96499e-05 -8.52982e-20 -0.00855258 -9.72214e-22 0)
(0.00855237 9.71904e-05 8.11941e-20 -0.00854414 -4.86651e-21 0)
(0.00854356 0.000103668 1.04246e-19 -0.00853554 -6.8195e-20 0)
(0.00853482 0.000108939 -8.44148e-20 -0.00852703 1.21333e-20 0)
(0.00852644 0.000112848 2.23921e-20 -0.0085189 -2.75012e-20 0)
(0.00851876 0.000115228 -7.7835e-20 -0.00851148 2.36874e-20 0)
(0.00851214 0.0001159 4.19421e-20 -0.00850514 3.46597e-21 0)
(0.00850698 0.00011467 1.17741e-19 -0.00850028 -1.03987e-19 0)
(0.00850375 0.00011133 -5.59353e-20 -0.00849737 1.23155e-20 0)
(0.00850297 0.000105653 1.10614e-20 -0.00849692 -2.45075e-20 0)
(0.00850522 9.73967e-05 -7.67087e-20 -0.00849952 3.11679e-20 0)
(0.00851116 8.62967e-05 6.51289e-20 -0.00850581 -3.07135e-20 0)
(0.00852155 7.20685e-05 1.22325e-19 -0.00851657 -1.0698e-19 0)
(0.00853724 5.44032e-05 -6.40139e-20 -0.00853264 3.79908e-20 0)
(0.00855926 3.29634e-05 2.01881e-20 -0.00855504 -2.82066e-20 0)
(0.00858878 7.37784e-06 -6.66087e-20 -0.00858496 5.01538e-20 0)
(0.00862721 -2.27691e-05 5.75911e-20 -0.00862379 -4.54339e-20 0)
(0.00867623 -5.79526e-05 1.37527e-19 -0.00867322 -1.36431e-19 0)
(0.00873786 -9.87323e-05 -5.26225e-20 -0.00873526 4.91934e-20 0)
(0.00881455 -0.00014579 9.22484e-21 -0.00881236 -9.33045e-21 0)
(0.00890926 -0.000199986 -7.56049e-20 -0.00890751 8.25748e-20 0)
(0.00902563 -0.000262447 8.08545e-20 -0.00902432 -9.28111e-20 0)
(0.00916802 -0.000334693 -4.89321e-22 -0.00916719 -8.44135e-22 0)
(0.00934172 -0.000418818 -1.07041e-19 -0.00934139 1.2323e-19 0)
(0.00955296 -0.000517744 1.49806e-19 -0.0095532 -1.68433e-19 0)
(0.00980906 -0.000635602 -1.45539e-19 -0.00980992 1.76651e-19 0)
(0.0101183 -0.000778182 8.84771e-20 -0.0101199 -1.29655e-19 0)
(0.0104897 -0.000953684 3.24705e-21 -0.0104921 -1.20391e-20 0)
(0.0109324 -0.00117343 -7.46913e-20 -0.0109359 1.10449e-19 0)
(0.0114554 -0.0014533 1.34523e-19 -0.0114598 -1.72743e-19 0)
(0.0120638 -0.0018145 -1.67941e-19 -0.0120698 2.44272e-19 0)
(0.0127605 -0.00228655 7.76495e-20 -0.0127669 -1.37681e-19 0)
(0.0135339 -0.00290672 -2.40304e-20 -0.0135425 2.1508e-20 0)
(0.0143685 -0.00372728 -1.38328e-19 -0.0143746 2.14635e-19 0)
(0.0152037 -0.00480854 2.03434e-19 -0.0152138 -3.02591e-19 0)
(0.0159916 -0.00623994 -1.61415e-19 -0.0159861 2.74246e-19 0)
(0.0165294 -0.00810862 1.68281e-19 -0.0165392 -3.19335e-19 0)
(0.0167435 -0.010552 1.79709e-21 -0.0166854 -9.40607e-21 0)
(0.0159324 -0.0136324 -1.70779e-19 -0.01596 3.9547e-19 0)
(0.0142056 -0.0173766 1.83719e-19 -0.0139521 -5.02922e-19 0)
(0.00932565 -0.0217818 -1.06573e-19 -0.00955462 5.41301e-19 0)
(0.00448249 -0.0261959 4.3662e-20 -0.00353402 -5.35326e-19 0)
(0.00346825 0.0232894 1.6543e-21 -0.00317873 2.31576e-20 0)
(0.00704208 0.0212786 -7.19164e-22 -0.00754676 -3.99522e-21 0)
(0.0110059 0.0181575 1.74794e-20 -0.0109391 6.39183e-20 0)
(0.0131318 0.0152103 6.92589e-21 -0.0132234 8.42773e-21 0)
(0.0146264 0.0124612 -1.1952e-34 -0.0145623 -2.42881e-34 0)
(0.0151087 0.010089 -8.04399e-20 -0.0150781 -1.6423e-19 0)
(0.0151363 0.00810874 -4.00654e-20 -0.0150694 -7.44785e-20 0)
(0.0147781 0.00649615 3.02021e-20 -0.0147224 4.86233e-20 0)
(0.0142584 0.00520507 -3.06227e-20 -0.014198 -5.05927e-20 0)
(0.0136461 0.00417861 7.91459e-20 -0.0135924 1.09695e-19 0)
(0.0130251 0.00336758 4.87795e-20 -0.0129738 7.09506e-20 0)
(0.0124281 0.00272662 2.07329e-20 -0.0123813 1.96639e-20 0)
(0.0118817 0.00221928 1.30446e-20 -0.0118381 1.53713e-20 0)
(0.0113943 0.00181525 7.62596e-21 -0.0113539 1.06133e-21 0)
(0.0109692 0.00149096 4.72026e-21 -0.0109313 1.22133e-20 0)
(0.0106036 0.00122788 2.3314e-20 -0.0105678 2.81881e-20 0)
(0.0102928 0.00101202 6.78221e-21 -0.0102587 2.363e-21 0)
(0.0100303 0.000832728 -1.02703e-20 -0.00999779 -1.43315e-20 0)
(0.00981009 0.000682115 1.62807e-20 -0.00977879 1.55305e-20 0)
(0.00962593 0.000554288 4.89451e-21 -0.0095957 7.19069e-21 0)
(0.00947239 0.000444889 -4.77657e-21 -0.00944307 -5.59854e-21 0)
(0.00934467 0.00035067 3.98895e-22 -0.00931615 3.73874e-22 0)
(0.00923865 0.000269199 -4.8909e-21 -0.00921084 -4.81478e-21 0)
(0.00915087 0.000198628 -2.47499e-20 -0.00912369 -2.23318e-20 0)
(0.00907843 0.000137524 1.10076e-20 -0.00905181 7.43187e-21 0)
(0.00901891 8.47556e-05 4.12692e-21 -0.00899281 5.03159e-21 0)
(0.00897031 3.94008e-05 -1.52895e-20 -0.00894468 -1.02552e-20 0)
(0.00893096 6.9262e-07 -1.41184e-34 -0.00890576 -1.21738e-34 0)
(0.00889946 -3.20242e-05 8.03306e-21 -0.00887465 7.98602e-21 0)
(0.00887464 -5.93212e-05 1.25203e-20 -0.00885019 2.92316e-21 0)
(0.00885548 -8.17051e-05 -1.56503e-21 -0.00883136 2.07284e-21 0)
(0.00884114 -9.96316e-05 1.21386e-20 -0.00881732 1.00122e-20 0)
(0.00883086 -0.000113514 1.10618e-33 -0.00880732 5.854e-34 0)
(0.008824 -0.00012373 -2.09222e-20 -0.00880071 -6.85955e-21 0)
(0.00881999 -0.000130627 1.41397e-20 -0.00879693 -7.926e-22 0)
(0.00881832 -0.000134523 -2.44254e-21 -0.00879547 2.95758e-21 0)
(0.00881853 -0.000135713 1.94656e-21 -0.00879587 4.6565e-21 0)
(0.00882023 -0.000134471 1.40082e-20 -0.00879775 4.94315e-21 0)
(0.00882307 -0.000131048 -1.23763e-20 -0.00880074 1.6606e-22 0)
(0.00882671 -0.00012568 1.10478e-20 -0.00880452 -5.26533e-21 0)
(0.00883087 -0.000118585 1.87001e-20 -0.0088088 4.84431e-21 0)
(0.0088353 -0.000109968 -1.87095e-20 -0.00881334 -4.29462e-21 0)
(0.00883978 -0.000100022 -4.67974e-21 -0.00881792 -9.39581e-22 0)
(0.00884412 -8.8927e-05 1.87281e-20 -0.00882233 3.23376e-21 0)
(0.00884813 -7.68549e-05 9.36832e-21 -0.00882642 1.35966e-21 0)
(0.00885169 -6.39692e-05 -4.68605e-21 -0.00883003 -5.53342e-22 0)
(0.00885468 -5.04268e-05 5.48174e-34 -0.00883306 1.10785e-34 0)
(0.008857 -3.63791e-05 -4.68886e-21 -0.00883542 -3.05179e-22 0)
(0.00885858 -2.19734e-05 6.27601e-34 -0.00883702 4.82399e-35 0)
(0.00885939 -7.35397e-06 9.38024e-21 -0.00883784 1.21693e-22 0)
(0.00885939 7.33643e-06 -2.81407e-20 -0.00883784 3.65055e-22 0)
(0.00885858 2.19558e-05 -1.14123e-34 -0.00883702 1.0299e-34 0)
(0.008857 3.63615e-05 1.87554e-20 -0.00883542 -1.2207e-21 0)
(0.00885468 5.04092e-05 -1.40629e-20 -0.00883306 1.28576e-21 0)
(0.00885169 6.39515e-05 9.37209e-21 -0.00883003 -1.10668e-21 0)
(0.00884813 7.68371e-05 -2.33775e-20 -0.00882642 3.1333e-21 0)
(0.00884412 8.89091e-05 1.14687e-33 -0.00882233 -9.29131e-35 0)
(0.00883978 0.000100004 3.27582e-20 -0.00881792 -6.57704e-21 0)
(0.00883531 0.00010995 -1.40321e-20 -0.00881334 3.22096e-21 0)
(0.00883087 0.000118566 4.67502e-21 -0.0088088 -1.21107e-21 0)
(0.00882671 0.000125661 3.48887e-21 -0.00880452 1.56746e-20 0)
(0.00882307 0.000131029 -3.46629e-34 -0.00880074 1.26183e-34 0)
(0.00882024 0.000134451 -1.86776e-20 -0.00879775 6.59086e-21 0)
(0.00881853 0.000135693 -1.40055e-20 -0.00879588 5.4086e-21 0)
(0.00881832 0.000134502 2.33419e-20 -0.00879547 -9.81796e-21 0)
(0.00881999 0.000130606 9.46759e-21 -0.00879693 -4.52569e-21 0)
(0.008824 0.000123708 1.104e-33 -0.00880071 -5.23054e-34 0)
(0.00883086 0.000113491 1.1293e-34 -0.00880732 -9.57907e-35 0)
(0.00884114 9.96082e-05 -4.68046e-21 -0.00881732 2.67218e-21 0)
(0.00885548 8.16811e-05 4.68805e-21 -0.00883136 -2.86841e-21 0)
(0.00887463 5.92967e-05 -4.51978e-21 -0.00885018 2.80687e-21 0)
(0.00889945 3.19994e-05 4.70367e-34 -0.00887464 -3.04002e-34 0)
(0.00893095 -7.17479e-07 1.27011e-34 -0.00890574 -1.03547e-34 0)
(0.0089703 -3.94254e-05 -1.42465e-20 -0.00894466 1.12428e-20 0)
(0.00901889 -8.47795e-05 9.54912e-21 -0.00899279 -7.98902e-21 0)
(0.00907841 -0.000137547 5.03979e-21 -0.00905179 -4.52656e-21 0)
(0.00915085 -0.000198648 -1.93777e-20 -0.00912367 1.81078e-20 0)
(0.00923863 -0.000269218 -1.39339e-34 -0.00921082 1.38232e-34 0)
(0.00934465 -0.000350685 1.48411e-20 -0.00931613 -1.53565e-20 0)
(0.00947238 -0.000444901 -2.00585e-20 -0.00944306 2.1764e-20 0)
(0.00962593 -0.000554297 -3.53758e-20 -0.00959569 4.01954e-20 0)
(0.0098101 -0.00068212 1.2929e-19 -0.00977879 -1.32961e-19 0)
(0.0100304 -0.00083273 -2.75992e-20 -0.00999781 2.89612e-20 0)
(0.0102928 -0.00101202 4.01645e-20 -0.0102587 -1.74681e-20 0)
(0.0106037 -0.00122788 1.15538e-19 -0.0105679 -1.12425e-19 0)
(0.0109693 -0.00149096 -1.81216e-21 -0.0109313 -8.89752e-21 0)
(0.0113944 -0.00181526 1.60393e-19 -0.0113539 -1.73706e-19 0)
(0.0118818 -0.0022193 -3.28439e-20 -0.0118382 3.70098e-20 0)
(0.0124282 -0.00272665 6.62576e-20 -0.0123815 -2.35051e-20 0)
(0.0130252 -0.00336763 1.1303e-19 -0.0129739 -1.10674e-19 0)
(0.0136462 -0.00417867 2.92976e-20 -0.0135924 -4.62722e-20 0)
(0.0142584 -0.00520515 1.50319e-19 -0.0141981 -1.84181e-19 0)
(0.0147781 -0.00649623 -2.80186e-20 -0.0147224 3.69917e-20 0)
(0.0151362 -0.00810884 9.44143e-20 -0.0150694 -1.0003e-19 0)
(0.0151086 -0.0100891 1.36193e-19 -0.015078 -1.92481e-19 0)
(0.0146262 -0.0124612 -4.17783e-20 -0.0145621 8.4092e-20 0)
(0.0131316 -0.0152103 1.25793e-19 -0.0132232 -2.98507e-19 0)
(0.0110056 -0.0181575 5.40931e-21 -0.0109388 -2.52392e-20 0)
(0.00704184 -0.0212786 -2.59029e-20 -0.00754652 1.69434e-19 0)
(0.0034681 -0.0232893 1.46722e-20 -0.00317859 -1.82888e-19 0)
(0.0027808 0.0212537 4.53647e-21 -0.00222763 6.9049e-20 0)
(0.00573813 0.0196992 -1.08423e-20 -0.00597986 -7.65316e-20 0)
(0.00901075 0.0175351 -2.01283e-20 -0.00884885 -8.49813e-20 0)
(0.0109778 0.0154085 1.10034e-20 -0.0110242 2.91808e-20 0)
(0.0126287 0.0132414 1.9846e-20 -0.0125708 4.78245e-20 0)
(0.0134958 0.011222 3.69012e-20 -0.0134907 7.84564e-20 0)
(0.0139444 0.00939141 -1.06294e-19 -0.0139135 -1.63014e-19 0)
(0.0139769 0.00779917 -3.31625e-20 -0.0139594 -5.60001e-20 0)
(0.0137835 0.00644532 -8.28601e-20 -0.01376 -1.02812e-19 0)
(0.0134303 0.00531494 -1.10646e-19 -0.0134106 -1.28599e-19 0)
(0.0130067 0.00438166 6.22384e-21 -0.0129859 6.87469e-21 0)
(0.0125548 0.00361623 6.24455e-21 -0.0125354 6.6362e-21 0)
(0.0121119 0.00299041 6.19404e-21 -0.0120926 6.40177e-21 0)
(0.0116956 0.0024785 2.45666e-20 -0.0116771 2.97953e-20 0)
(0.0113177 0.00205851 5.31204e-21 -0.0112995 7.32921e-21 0)
(0.0109817 0.00171207 2.53753e-22 -0.0109639 -5.06056e-21 0)
(0.0106879 0.00142434 1.70948e-20 -0.0106706 1.58848e-20 0)
(0.0104341 0.00118348 4.5503e-34 -0.0104171 5.34137e-34 0)
(0.0102165 0.000980227 2.14455e-20 -0.0101998 2.41728e-20 0)
(0.0100311 0.000807395 1.47629e-20 -0.0100147 1.58426e-20 0)
(0.00987389 0.00065944 4.68627e-21 -0.00985766 5.21623e-21 0)
(0.00974085 0.000532092 5.67408e-22 -0.0097248 3.69942e-23 0)
(0.00962854 0.000422057 1.19145e-20 -0.00961264 1.57071e-20 0)
(0.00953389 0.000326773 -8.45204e-21 -0.00951812 -1.00777e-20 0)
(0.00945428 0.000244229 -8.57998e-21 -0.00943861 -1.05219e-20 0)
(0.00938746 0.000172819 2.93438e-21 -0.00937187 6.1794e-21 0)
(0.00933154 0.000111242 2.26103e-20 -0.00931601 1.29913e-20 0)
(0.00928493 5.84184e-05 3.47166e-21 -0.00926943 4.9072e-21 0)
(0.00924627 1.34397e-05 -2.61615e-20 -0.0092308 -2.29939e-20 0)
(0.00921443 -2.44765e-05 -8.44598e-21 -0.00919897 -8.40994e-21 0)
(0.00918844 -5.60139e-05 1.18049e-21 -0.00917298 7.10903e-21 0)
(0.00916747 -8.17785e-05 4.44766e-21 -0.009152 -4.17585e-21 0)
(0.00915079 -0.000102314 8.15093e-21 -0.00913531 2.16902e-20 0)
(0.00913777 -0.000118112 -2.97338e-23 -0.00912227 -7.35002e-21 0)
(0.00912788 -0.000129621 -7.21705e-21 -0.00911235 -1.48679e-20 0)
(0.00912061 -0.000137252 -5.31461e-21 -0.00910505 5.98309e-21 0)
(0.00911554 -0.000141384 2.53215e-20 -0.00909995 1.29174e-21 0)
(0.00911228 -0.000142365 -6.62279e-21 -0.00909666 -6.46378e-21 0)
(0.00911048 -0.000140521 -1.2823e-20 -0.00909483 3.22617e-22 0)
(0.00910984 -0.000136151 8.06466e-21 -0.00909415 -2.38526e-21 0)
(0.00911008 -0.000129538 1.91289e-21 -0.00909436 2.28626e-20 0)
(0.00911096 -0.000120946 -9.69327e-21 -0.00909521 -2.06061e-20 0)
(0.00911227 -0.000110621 -3.76868e-21 -0.00909649 3.87745e-21 0)
(0.00911381 -9.87988e-05 5.73647e-21 -0.009098 5.6235e-21 0)
(0.00911542 -8.57014e-05 3.84629e-21 -0.0090996 2.40864e-20 0)
(0.00911697 -7.15413e-05 3.13964e-21 -0.00910113 2.40905e-20 0)