/*--------------------------------*- C++ -*----------------------------------*\
| =========                 |                                                 |
| \\      /  F ield         | foam-extend: Open Source CFD                    |
|  \\    /   O peration     | Version:     4.1                                |
|   \\  /    A nd           | Web:         http://www.foam-extend.org         |
|    \\/     M anipulation  |                                                 |
\*---------------------------------------------------------------------------*/
FoamFile
{
    version     2.0;
    format      ascii;
    class       pointVectorField;
    location    "1";
    object      pointD;
}
// * * * * * * * * * * * * * * * * * * * * * * * * * * * * * * * * * * * * * //

dimensions      [0 1 0 0 0 0 0];

internalField   nonuniform List<vector> 
20402
(
(0.00391892 0.00104956 7.75662e-20)
(0.00546942 0.00889474 3.61935e-20)
(0.0067919 0.0145203 -2.55919e-20)
(0.00844465 0.019057 -2.3518e-20)
(0.0100203 0.0228111 2.5438e-22)
(0.011535 0.0260548 -3.68063e-21)
(0.012962 0.0288829 -1.37836e-21)
(0.0143068 0.0313904 3.79312e-21)
(0.0155691 0.0336407 -1.20407e-21)
(0.0167547 0.0356867 -2.69341e-21)
(0.0178699 0.0375668 -3.07768e-21)
(0.0189224 0.0393105 -4.57751e-21)
(0.0199201 0.0409393 -2.24614e-21)
(0.0208708 0.0424692 -2.53939e-21)
(0.0217815 0.0439116 -5.99734e-21)
(0.0226589 0.0452753 -2.91363e-21)
(0.0235087 0.0465667 -1.96246e-23)
(0.0243359 0.0477908 -1.21399e-21)
(0.0251448 0.0489514 -2.0757e-21)
(0.0259391 0.0500517 -3.02244e-21)
(0.0267219 0.0510945 -1.80379e-21)
(0.0274957 0.0520822 -1.88689e-21)
(0.0282629 0.0530171 -1.7272e-21)
(0.0290252 0.0539011 -8.71864e-22)
(0.0297841 0.0547364 -2.1025e-21)
(0.030541 0.0555246 -4.15968e-22)
(0.0312969 0.0562677 2.1972e-22)
(0.0320527 0.0569674 -5.87604e-22)
(0.0328091 0.0576254 -5.44253e-22)
(0.0335667 0.0582432 -1.72967e-21)
(0.0343259 0.0588224 2.44613e-22)
(0.0350871 0.0593644 1.60511e-21)
(0.0358507 0.0598706 -5.40933e-22)
(0.0366167 0.0603423 -1.07263e-21)
(0.0373855 0.0607807 -8.55832e-22)
(0.038157 0.0611869 8.36652e-22)
(0.0389312 0.0615621 1.82353e-21)
(0.0397082 0.0619073 -1.5244e-21)
(0.040488 0.0622232 -2.64603e-21)
(0.0412704 0.0625109 -1.24527e-21)
(0.0420552 0.062771 2.32736e-24)
(0.0428425 0.0630042 -2.69989e-22)
(0.0436319 0.0632113 -8.29141e-22)
(0.0444234 0.0633927 -1.48558e-21)
(0.0452166 0.0635489 -1.36292e-21)
(0.0460114 0.0636803 9.00406e-22)
(0.0468075 0.0637874 3.48486e-22)
(0.0476047 0.0638704 -1.76918e-22)
(0.0484027 0.0639295 -1.50059e-21)
(0.0492012 0.0639649 -1.5315e-21)
(0.05 0.0639767 4.01838e-22)
(0.0507989 0.0639649 -4.42018e-22)
(0.0515974 0.0639295 -4.29784e-22)
(0.0523954 0.0638704 -2.14344e-22)
(0.0531926 0.0637874 -1.82843e-21)
(0.0539887 0.0636803 -2.76418e-22)
(0.0547835 0.0635489 2.68387e-22)
(0.0555767 0.0633927 -5.93531e-22)
(0.0563681 0.0632113 -1.64568e-22)
(0.0571576 0.0630042 -1.25336e-21)
(0.0579448 0.062771 -9.95367e-23)
(0.0587297 0.0625109 -1.16837e-22)
(0.0595121 0.0622232 -8.01028e-22)
(0.0602918 0.0619073 -7.96491e-22)
(0.0610689 0.0615621 -1.52722e-21)
(0.0618431 0.0611869 1.19511e-21)
(0.0626146 0.0607807 1.46492e-21)
(0.0633833 0.0603423 7.053e-22)
(0.0641494 0.0598706 1.53717e-21)
(0.064913 0.0593644 -6.96118e-22)
(0.0656742 0.0588224 -4.17549e-22)
(0.0664334 0.0582432 2.80325e-22)
(0.067191 0.0576254 -4.57735e-22)
(0.0679474 0.0569675 -1.88317e-21)
(0.0687032 0.0562678 -1.11334e-21)
(0.0694591 0.0555246 7.243e-22)
(0.070216 0.0547364 -1.25148e-21)
(0.0709749 0.0539012 1.07522e-22)
(0.0717372 0.0530171 5.12931e-22)
(0.0725044 0.0520823 -8.58278e-23)
(0.0732782 0.0510945 1.68534e-21)
(0.074061 0.0500517 -2.69113e-23)
(0.0748553 0.0489514 -1.34814e-21)
(0.0756642 0.0477908 5.85836e-22)
(0.0764914 0.0465668 2.49014e-21)
(0.0773412 0.0452754 2.24305e-21)
(0.0782186 0.0439117 -3.0576e-22)
(0.0791293 0.0424692 -1.42888e-21)
(0.08008 0.0409394 1.7723e-21)
(0.0810777 0.0393106 2.28857e-21)
(0.0821302 0.0375668 1.2701e-22)
(0.0832454 0.0356867 -1.31904e-21)
(0.084431 0.0336407 -9.4972e-22)
(0.0856932 0.0313904 1.16704e-21)
(0.087038 0.0288828 7.02057e-22)
(0.088465 0.0260547 3.93234e-21)
(0.0899797 0.022811 6.04653e-21)
(0.0915554 0.0190569 6.50936e-21)
(0.0932081 0.0145201 3.16385e-21)
(0.0945306 0.00889465 -6.56057e-21)
(0.0960812 0.00104955 -1.04672e-20)
(-1.12132e-19 -7.5342e-19 0)
(0.00149901 0.00691946 0)
(0.0032811 0.0124494 0)
(0.00522705 0.0170799 0)
(0.00708225 0.0209857 0)
(0.00885255 0.0243621 0)
(0.0105094 0.0273159 0)
(0.0120559 0.0299393 0)
(0.0134931 0.0322956 0)
(0.0148298 0.0344362 0)
(0.0160759 0.0363991 0)
(0.0172429 0.0382141 0)
(0.0183417 0.0399033 0)
(0.0193829 0.0414838 0)
(0.0203758 0.0429684 0)
(0.0213286 0.0443668 0)
(0.0222485 0.0456867 0)
(0.0231414 0.0469338 0)
(0.0240123 0.0481131 0)
(0.0248655 0.0492283 0)
(0.0257045 0.050283 0)
(0.0265322 0.05128 0)
(0.0273509 0.0522221 0)
(0.0281627 0.0531115 0)
(0.0289692 0.0539506 0)
(0.0297718 0.0547416 0)
(0.0305717 0.0554864 0)
(0.0313698 0.0561869 0)
(0.0321669 0.056845 0)
(0.0329637 0.0574623 0)
(0.0337607 0.0580406 0)
(0.0345583 0.0585813 0)
(0.035357 0.0590858 0)
(0.036157 0.0595557 0)
(0.0369585 0.0599921 0)
(0.0377617 0.0603963 0)
(0.0385667 0.0607694 0)
(0.0393735 0.0611123 0)
(0.0401822 0.0614262 0)
(0.0409928 0.0617117 0)
(0.0418051 0.0619698 0)
(0.0426192 0.0622012 0)
(0.0434349 0.0624065 0)
(0.044252 0.0625863 0)
(0.0450706 0.0627411 0)
(0.0458903 0.0628714 0)
(0.046711 0.0629774 0)
(0.0475325 0.0630596 0)
(0.0483547 0.0631181 0)
(0.0491773 0.0631532 0)
(0.05 0.0631649 0)
(0.0508228 0.0631532 0)
(0.0516454 0.0631181 0)
(0.0524676 0.0630596 0)
(0.0532891 0.0629774 0)
(0.0541098 0.0628714 0)
(0.0549295 0.0627411 0)
(0.055748 0.0625863 0)
(0.0565652 0.0624065 0)
(0.0573809 0.0622012 0)
(0.058195 0.0619698 0)
(0.0590073 0.0617117 0)
(0.0598179 0.0614262 0)
(0.0606266 0.0611123 0)
(0.0614334 0.0607694 0)
(0.0622384 0.0603963 0)
(0.0630416 0.0599922 0)
(0.0638431 0.0595557 0)
(0.0646431 0.0590859 0)
(0.0654418 0.0585813 0)
(0.0662394 0.0580406 0)
(0.0670364 0.0574623 0)
(0.0678332 0.056845 0)
(0.0686303 0.0561869 0)
(0.0694284 0.0554864 0)
(0.0702283 0.0547416 0)
(0.0710309 0.0539507 0)
(0.0718374 0.0531115 0)
(0.0726492 0.0522221 0)
(0.0734679 0.0512801 0)
(0.0742956 0.050283 0)
(0.0751345 0.0492284 0)
(0.0759878 0.0481131 0)
(0.0768587 0.0469339 0)
(0.0777516 0.0456867 0)
(0.0786715 0.0443669 0)
(0.0796243 0.0429685 0)
(0.0806172 0.0414839 0)
(0.0816584 0.0399034 0)
(0.0827572 0.0382141 0)
(0.0839242 0.0363992 0)
(0.0851703 0.0344362 0)
(0.086507 0.0322956 0)
(0.0879442 0.0299393 0)
(0.0894907 0.0273158 0)
(0.0911475 0.024362 0)
(0.0929178 0.0209856 0)
(0.094773 0.0170798 0)
(0.0967189 0.0124493 0)
(0.098501 0.00691938 0)
(0.1 -1.39212e-16 0)
(-2.71051e-20 -2.1684e-19 0)
(0.00067148 0.00567354 0)
(0.00185339 0.010789 0)
(0.00346003 0.0152761 0)
(0.00516381 0.0191914 0)
(0.00689544 0.0226334 0)
(0.00857173 0.0256813 0)
(0.0101717 0.0284077 0)
(0.0116787 0.0308667 0)
(0.0130933 0.0331035 0)
(0.0144193 0.0351532 0)
(0.0156652 0.0370442 0)
(0.0168404 0.0387989 0)
(0.0179546 0.0404347 0)
(0.0190169 0.0419656 0)
(0.0200358 0.0434025 0)
(0.0210186 0.0447539 0)
(0.0219714 0.046027 0)
(0.0228995 0.0472273 0)
(0.0238076 0.0483597 0)
(0.0246992 0.0494282 0)
(0.0255774 0.0504363 0)
(0.0264448 0.0513871 0)
(0.0273035 0.0522834 0)
(0.0281553 0.0531279 0)
(0.0290016 0.0539228 0)
(0.0298437 0.0546706 0)
(0.0306826 0.0553731 0)
(0.0315192 0.0560324 0)
(0.0323541 0.0566504 0)
(0.0331881 0.0572288 0)
(0.0340215 0.0577692 0)
(0.0348548 0.0582731 0)
(0.0356884 0.058742 0)
(0.0365226 0.0591773 0)
(0.0373575 0.0595802 0)
(0.0381933 0.0599518 0)
(0.0390301 0.0602932 0)
(0.0398681 0.0606055 0)
(0.0407072 0.0608896 0)
(0.0415475 0.0611462 0)
(0.042389 0.0613762 0)
(0.0432315 0.0615801 0)
(0.0440751 0.0617587 0)
(0.0449197 0.0619124 0)
(0.045765 0.0620417 0)
(0.0466111 0.062147 0)
(0.0474578 0.0622286 0)
(0.048305 0.0622866 0)
(0.0491524 0.0623214 0)
(0.05 0.062333 0)
(0.0508476 0.0623214 0)
(0.0516951 0.0622866 0)
(0.0525422 0.0622286 0)
(0.0533889 0.062147 0)
(0.054235 0.0620417 0)
(0.0550804 0.0619124 0)
(0.055925 0.0617587 0)
(0.0567685 0.0615801 0)
(0.0576111 0.0613762 0)
(0.0584525 0.0611462 0)
(0.0592928 0.0608896 0)
(0.060132 0.0606055 0)
(0.0609699 0.0602933 0)
(0.0618068 0.0599518 0)
(0.0626426 0.0595802 0)
(0.0634775 0.0591773 0)
(0.0643116 0.058742 0)
(0.0651452 0.0582731 0)
(0.0659786 0.0577692 0)
(0.066812 0.0572288 0)
(0.067646 0.0566504 0)
(0.0684809 0.0560325 0)
(0.0693175 0.0553731 0)
(0.0701564 0.0546706 0)
(0.0709985 0.0539229 0)
(0.0718448 0.0531279 0)
(0.0726966 0.0522834 0)
(0.0735553 0.0513871 0)
(0.0744227 0.0504363 0)
(0.0753009 0.0494282 0)
(0.0761925 0.0483597 0)
(0.0771005 0.0472274 0)
(0.0780287 0.046027 0)
(0.0789815 0.044754 0)
(0.0799642 0.0434025 0)
(0.0809831 0.0419657 0)
(0.0820455 0.0404348 0)
(0.0831597 0.0387989 0)
(0.0843349 0.0370443 0)
(0.0855808 0.0351532 0)
(0.0869068 0.0331035 0)
(0.0883214 0.0308667 0)
(0.0898284 0.0284077 0)
(0.0914284 0.0256813 0)
(0.0931047 0.0226333 0)
(0.0948363 0.0191913 0)
(0.09654 0.015276 0)
(0.0981466 0.0107889 0)
(0.0993285 0.00567348 0)
(0.1 -7.76289e-17 0)
(-1.35525e-20 0 0)
(0.000397544 0.00501909 0)
(0.00121594 0.00961364 0)
(0.00247653 0.0137805 0)
(0.00392976 0.0175591 0)
(0.00549826 0.0209721 0)
(0.00708017 0.024055 0)
(0.00863657 0.0268477 0)
(0.0101357 0.0293873 0)
(0.011567 0.0317076 0)
(0.012926 0.0338377 0)
(0.0142153 0.0358024 0)
(0.0154399 0.0376224 0)
(0.0166067 0.039315 0)
(0.017723 0.0408942 0)
(0.018796 0.0423719 0)
(0.0198321 0.0437574 0)
(0.0208372 0.0450588 0)
(0.0218163 0.0462826 0)
(0.0227739 0.0474343 0)
(0.0237136 0.0485186 0)
(0.0246385 0.0495397 0)
(0.0255512 0.0505011 0)
(0.0264539 0.051406 0)
(0.0273483 0.0522574 0)
(0.0282361 0.053058 0)
(0.0291184 0.0538101 0)
(0.0299963 0.0545161 0)
(0.0308708 0.0551781 0)
(0.0317427 0.055798 0)
(0.0326125 0.0563777 0)
(0.0334808 0.0569189 0)
(0.0343481 0.0574233 0)
(0.0352148 0.0578923 0)
(0.0360812 0.0583274 0)
(0.0369475 0.0587299 0)
(0.0378141 0.059101 0)
(0.0386809 0.0594417 0)
(0.0395483 0.0597532 0)
(0.0404162 0.0600365 0)
(0.0412847 0.0602922 0)
(0.0421538 0.0605213 0)
(0.0430237 0.0607245 0)
(0.0438941 0.0609023 0)
(0.0447651 0.0610553 0)
(0.0456367 0.061184 0)
(0.0465088 0.0612887 0)
(0.0473813 0.0613698 0)
(0.048254 0.0614276 0)
(0.049127 0.0614622 0)
(0.05 0.0614737 0)
(0.0508731 0.0614622 0)
(0.0517461 0.0614276 0)
(0.0526188 0.0613698 0)
(0.0534913 0.0612887 0)
(0.0543633 0.061184 0)
(0.0552349 0.0610553 0)
(0.056106 0.0609023 0)
(0.0569764 0.0607245 0)
(0.0578462 0.0605213 0)
(0.0587154 0.0602922 0)
(0.0595839 0.0600365 0)
(0.0604518 0.0597533 0)
(0.0613191 0.0594417 0)
(0.062186 0.059101 0)
(0.0630525 0.0587299 0)
(0.0639189 0.0583274 0)
(0.0647853 0.0578923 0)
(0.065652 0.0574233 0)
(0.0665193 0.0569189 0)
(0.0673876 0.0563777 0)
(0.0682574 0.055798 0)
(0.0691293 0.0551781 0)
(0.0700038 0.0545161 0)
(0.0708817 0.0538101 0)
(0.071764 0.053058 0)
(0.0726518 0.0522575 0)
(0.0735462 0.051406 0)
(0.0744488 0.0505011 0)
(0.0753615 0.0495397 0)
(0.0762864 0.0485186 0)
(0.0772261 0.0474343 0)
(0.0781837 0.0462826 0)
(0.0791629 0.0450589 0)
(0.080168 0.0437575 0)
(0.0812041 0.0423719 0)
(0.082277 0.0408943 0)
(0.0833934 0.039315 0)
(0.0845602 0.0376225 0)
(0.0857848 0.0358025 0)
(0.0870741 0.0338377 0)
(0.0884331 0.0317076 0)
(0.0898645 0.0293873 0)
(0.0913636 0.0268477 0)
(0.09292 0.024055 0)
(0.0945019 0.0209721 0)
(0.0960703 0.017559 0)
(0.0975235 0.0137804 0)
(0.0987841 0.00961358 0)
(0.0996025 0.00501905 0)
(0.1 -4.66207e-17 0)
(2.71051e-20 2.1684e-19 0)
(0.000312453 0.00448282 0)
(0.000951463 0.00868935 0)
(0.00195229 0.0125724 0)
(0.00315777 0.0161698 0)
(0.00452053 0.0194901 0)
(0.00595076 0.0225477 0)
(0.00740479 0.0253581 0)
(0.00884254 0.0279412 0)
(0.0102446 0.0303181 0)
(0.0115985 0.0325094 0)
(0.0129 0.0345347 0)
(0.0141492 0.0364114 0)
(0.0153489 0.0381554 0)
(0.0165034 0.03978 0)
(0.0176177 0.0412969 0)
(0.018697 0.0427161 0)
(0.019746 0.044046 0)
(0.0207692 0.0452938 0)
(0.0217706 0.0464656 0)
(0.0227534 0.0475667 0)
(0.0237207 0.0486017 0)
(0.024675 0.0495747 0)
(0.0256184 0.0504893 0)
(0.0265526 0.0513487 0)
(0.0274792 0.0521558 0)
(0.0283996 0.0529132 0)
(0.0293146 0.0536236 0)
(0.0302254 0.054289 0)
(0.0311327 0.0549117 0)
(0.0320372 0.0554936 0)
(0.0329394 0.0560365 0)
(0.0338398 0.0565421 0)
(0.0347389 0.0570119 0)
(0.035637 0.0574475 0)
(0.0365344 0.0578503 0)
(0.0374313 0.0582214 0)
(0.038328 0.058562 0)
(0.0392246 0.0588733 0)
(0.0401213 0.0591562 0)
(0.0410181 0.0594116 0)
(0.0419152 0.0596402 0)
(0.0428125 0.0598429 0)
(0.0437101 0.0600203 0)
(0.044608 0.0601728 0)
(0.0455062 0.0603011 0)
(0.0464046 0.0604055 0)
(0.0473033 0.0604864 0)
(0.0482021 0.060544 0)
(0.049101 0.0605785 0)
(0.05 0.0605899 0)
(0.050899 0.0605785 0)
(0.051798 0.060544 0)
(0.0526968 0.0604864 0)
(0.0535955 0.0604055 0)
(0.0544939 0.0603011 0)
(0.0553921 0.0601728 0)
(0.05629 0.0600203 0)
(0.0571876 0.0598429 0)
(0.0580849 0.0596402 0)
(0.0589819 0.0594116 0)
(0.0598788 0.0591562 0)
(0.0607754 0.0588733 0)
(0.0616721 0.0585621 0)
(0.0625688 0.0582214 0)
(0.0634657 0.0578503 0)
(0.0643631 0.0574475 0)
(0.0652612 0.0570119 0)
(0.0661603 0.0565421 0)
(0.0670607 0.0560365 0)
(0.0679629 0.0554936 0)
(0.0688673 0.0549117 0)
(0.0697746 0.0542891 0)
(0.0706854 0.0536236 0)
(0.0716005 0.0529133 0)
(0.0725208 0.0521558 0)
(0.0734475 0.0513487 0)
(0.0743817 0.0504893 0)
(0.0753251 0.0495747 0)
(0.0762793 0.0486017 0)
(0.0772466 0.0475667 0)
(0.0782295 0.0464656 0)
(0.0792308 0.0452938 0)
(0.0802541 0.044046 0)
(0.0813031 0.0427162 0)
(0.0823824 0.041297 0)
(0.0834967 0.03978 0)
(0.0846512 0.0381554 0)
(0.0858509 0.0364115 0)
(0.0871001 0.0345347 0)
(0.0884017 0.0325094 0)
(0.0897555 0.0303181 0)
(0.0911576 0.0279412 0)
(0.0925953 0.0253581 0)
(0.0940494 0.0225476 0)
(0.0954796 0.0194901 0)
(0.0968423 0.0161697 0)
(0.0980478 0.0125723 0)
(0.0990486 0.00868931 0)
(0.0996876 0.0044828 0)
(0.1 -4.0766e-17 0)
(6.77626e-21 2.1684e-19 0)
(0.000260287 0.00407244 0)
(0.000793427 0.00794791 0)
(0.00162724 0.0115787 0)
(0.00264416 0.01499 0)
(0.00382173 0.018187 0)
(0.00509327 0.0211775 0)
(0.00642254 0.0239645 0)
(0.00777026 0.0265553 0)
(0.00911322 0.0289596 0)
(0.0104337 0.0311896 0)
(0.0117224 0.0332586 0)
(0.0129744 0.03518 0)
(0.0141885 0.0369669 0)
(0.0153658 0.0386312 0)
(0.0165088 0.0401837 0)
(0.0176206 0.0416344 0)
(0.0187048 0.0429916 0)
(0.0197646 0.0442629 0)
(0.0208034 0.0454548 0)
(0.0218241 0.046573 0)
(0.0228292 0.0476226 0)
(0.023821 0.0486078 0)
(0.0248016 0.0495327 0)
(0.0257726 0.0504008 0)
(0.0267354 0.0512152 0)
(0.0276914 0.0519789 0)
(0.0286415 0.0526943 0)
(0.0295867 0.053364 0)
(0.0305279 0.0539902 0)
(0.0314656 0.054575 0)
(0.0324004 0.0551202 0)
(0.033333 0.0556277 0)
(0.0342636 0.056099 0)
(0.0351926 0.0565358 0)
(0.0361205 0.0569394 0)
(0.0370474 0.0573111 0)
(0.0379736 0.0576522 0)
(0.0388993 0.0579637 0)
(0.0398246 0.0582467 0)
(0.0407497 0.0585021 0)
(0.0416746 0.0587307 0)
(0.0425995 0.0589333 0)
(0.0435243 0.0591105 0)
(0.0444493 0.059263 0)
(0.0453742 0.0593911 0)
(0.0462993 0.0594954 0)
(0.0472244 0.0595761 0)
(0.0481496 0.0596336 0)
(0.0490748 0.059668 0)
(0.05 0.0596795 0)
(0.0509253 0.059668 0)
(0.0518505 0.0596336 0)
(0.0527757 0.0595761 0)
(0.0537008 0.0594954 0)
(0.0546258 0.0593911 0)
(0.0555508 0.059263 0)
(0.0564757 0.0591105 0)
(0.0574006 0.0589333 0)
(0.0583255 0.0587308 0)
(0.0592504 0.0585021 0)
(0.0601755 0.0582468 0)
(0.0611008 0.0579638 0)
(0.0620265 0.0576522 0)
(0.0629527 0.0573111 0)
(0.0638796 0.0569394 0)
(0.0648074 0.0565358 0)
(0.0657365 0.056099 0)
(0.0666671 0.0556277 0)
(0.0675996 0.0551202 0)
(0.0685345 0.054575 0)
(0.0694722 0.0539903 0)
(0.0704133 0.053364 0)
(0.0713586 0.0526943 0)
(0.0723087 0.0519789 0)
(0.0732647 0.0512153 0)
(0.0742275 0.0504008 0)
(0.0751985 0.0495328 0)
(0.076179 0.0486079 0)
(0.0771709 0.0476226 0)
(0.078176 0.0465731 0)
(0.0791966 0.0454549 0)
(0.0802354 0.044263 0)
(0.0812953 0.0429917 0)
(0.0823794 0.0416344 0)
(0.0834913 0.0401838 0)
(0.0846343 0.0386312 0)
(0.0858116 0.0369669 0)
(0.0870257 0.0351801 0)
(0.0882777 0.0332586 0)
(0.0895664 0.0311896 0)
(0.0908869 0.0289596 0)
(0.0922299 0.0265553 0)
(0.0935776 0.0239645 0)
(0.0949068 0.0211774 0)
(0.0961784 0.018187 0)
(0.0973559 0.01499 0)
(0.0983728 0.0115787 0)
(0.0992066 0.0079479 0)
(0.0997397 0.00407244 0)
(0.1 -2.38524e-18 0)
(1.87668e-20 3.37028e-19 0)
(0.000224712 0.00371039 0)
(0.000683814 0.00730958 0)
(0.0014009 0.0107293 0)
(0.0022782 0.0139752 0)
(0.00330468 0.0170471 0)
(0.00443261 0.0199512 0)
(0.00563657 0.0226872 0)
(0.00688354 0.0252561 0)
(0.00815113 0.0276605 0)
(0.00941986 0.0299058 0)
(0.0106772 0.0319994 0)
(0.0119146 0.0339506 0)
(0.0131275 0.035769 0)
(0.0143138 0.0374646 0)
(0.0154735 0.0390468 0)
(0.0166076 0.0405247 0)
(0.0177181 0.0419064 0)
(0.0188071 0.0431994 0)
(0.019877 0.0444103 0)
(0.0209299 0.045545 0)
(0.021968 0.0466088 0)
(0.0229933 0.0476063 0)
(0.0240074 0.0485417 0)
(0.0250119 0.0494187 0)
(0.0260081 0.0502408 0)
(0.0269971 0.0510109 0)
(0.0279801 0.0517319 0)
(0.0289578 0.0524064 0)
(0.0299311 0.0530366 0)
(0.0309005 0.0536247 0)
(0.0318667 0.0541727 0)
(0.0328302 0.0546825 0)
(0.0337913 0.0551558 0)
(0.0347505 0.0555942 0)
(0.0357081 0.0559991 0)
(0.0366644 0.0563719 0)
(0.0376196 0.0567137 0)
(0.0385739 0.0570259 0)
(0.0395276 0.0573094 0)
(0.0404807 0.0575651 0)
(0.0414333 0.057794 0)
(0.0423857 0.0579967 0)
(0.0433378 0.058174 0)
(0.0442898 0.0583265 0)
(0.0452416 0.0584547 0)
(0.0461933 0.0585589 0)
(0.0471451 0.0586397 0)
(0.0480967 0.0586971 0)
(0.0490484 0.0587315 0)
(0.05 0.058743 0)
(0.0509517 0.0587316 0)
(0.0519033 0.0586971 0)
(0.052855 0.0586397 0)
(0.0538067 0.0585589 0)
(0.0547585 0.0584547 0)
(0.0557103 0.0583265 0)
(0.0566623 0.058174 0)
(0.0576144 0.0579967 0)
(0.0585667 0.057794 0)
(0.0595194 0.0575651 0)
(0.0604725 0.0573094 0)
(0.0614261 0.0570259 0)
(0.0623805 0.0567138 0)
(0.0633357 0.0563719 0)
(0.0642919 0.0559991 0)
(0.0652495 0.0555942 0)
(0.0662088 0.0551559 0)
(0.0671699 0.0546826 0)
(0.0681333 0.0541727 0)
(0.0690995 0.0536247 0)
(0.070069 0.0530366 0)
(0.0710422 0.0524064 0)
(0.07202 0.051732 0)
(0.0730029 0.0510109 0)
(0.073992 0.0502408 0)
(0.0749882 0.0494187 0)
(0.0759927 0.0485417 0)
(0.0770068 0.0476063 0)
(0.078032 0.0466088 0)
(0.0790702 0.045545 0)
(0.0801231 0.0444103 0)
(0.0811929 0.0431995 0)
(0.0822819 0.0419065 0)
(0.0833924 0.0405247 0)
(0.0845266 0.0390468 0)
(0.0856863 0.0374646 0)
(0.0868726 0.035769 0)
(0.0880855 0.0339506 0)
(0.0893229 0.0319994 0)
(0.0905802 0.0299058 0)
(0.091849 0.0276605 0)
(0.0931166 0.0252561 0)
(0.0943635 0.0226872 0)
(0.0955675 0.0199512 0)
(0.0966954 0.0170471 0)
(0.0977219 0.0139752 0)
(0.0985991 0.0107294 0)
(0.0993162 0.00730959 0)
(0.0997753 0.0037104 0)
(0.1 1.84314e-18 0)
(-6.88985e-21 1.28731e-19 0)
(0.000192126 0.00340529 0)
(0.000589972 0.00676012 0)
(0.00121726 0.00999083 0)
(0.00198944 0.0130865 0)
(0.00289811 0.0160386 0)
(0.00390667 0.0188504 0)
(0.00499812 0.02152 0)
(0.00614693 0.0240469 0)
(0.00733428 0.0264297 0)
(0.00854175 0.0286697 0)
(0.00975581 0.03077 0)
(0.0109659 0.0327357 0)
(0.0121649 0.0345735 0)
(0.0133485 0.0362907 0)
(0.0145142 0.0378953 0)
(0.0156611 0.0393949 0)
(0.0167896 0.0407971 0)
(0.0179004 0.0421089 0)
(0.018995 0.0433368 0)
(0.0200746 0.0444867 0)
(0.0211408 0.0455638 0)
(0.0221952 0.0465729 0)
(0.0232391 0.0475185 0)
(0.0242738 0.0484045 0)
(0.0253004 0.0492342 0)
(0.02632 0.050011 0)
(0.0273335 0.0507378 0)
(0.0283416 0.0514172 0)
(0.0293452 0.0520516 0)
(0.0303447 0.0526434 0)
(0.0313408 0.0531946 0)
(0.0323339 0.0537071 0)
(0.0333244 0.0541826 0)
(0.0343128 0.0546229 0)
(0.0352993 0.0550294 0)
(0.0362842 0.0554036 0)
(0.0372678 0.0557466 0)
(0.0382503 0.0560597 0)
(0.0392318 0.0563439 0)
(0.0402126 0.0566002 0)
(0.0411927 0.0568296 0)
(0.0421723 0.0570327 0)
(0.0431515 0.0572103 0)
(0.0441304 0.057363 0)
(0.045109 0.0574913 0)
(0.0460874 0.0575957 0)
(0.0470657 0.0576765 0)
(0.0480438 0.0577341 0)
(0.049022 0.0577685 0)
(0.05 0.05778 0)
(0.0509781 0.0577685 0)
(0.0519562 0.0577341 0)
(0.0529344 0.0576765 0)
(0.0539127 0.0575957 0)
(0.0548911 0.0574913 0)
(0.0558697 0.057363 0)
(0.0568486 0.0572103 0)
(0.0578278 0.0570327 0)
(0.0588074 0.0568296 0)
(0.0597875 0.0566002 0)
(0.0607683 0.0563439 0)
(0.0617498 0.0560597 0)
(0.0627322 0.0557466 0)
(0.0637158 0.0554036 0)
(0.0647007 0.0550294 0)
(0.0656872 0.0546229 0)
(0.0666756 0.0541827 0)
(0.0676662 0.0537071 0)
(0.0686593 0.0531946 0)
(0.0696554 0.0526434 0)
(0.0706549 0.0520516 0)
(0.0716584 0.0514172 0)
(0.0726666 0.0507378 0)
(0.07368 0.050011 0)
(0.0746996 0.0492342 0)
(0.0757263 0.0484045 0)
(0.0767609 0.0475186 0)
(0.0778048 0.046573 0)
(0.0788592 0.0455638 0)
(0.0799255 0.0444867 0)
(0.0810051 0.0433369 0)
(0.0820996 0.042109 0)
(0.0832105 0.0407972 0)
(0.0843389 0.0393949 0)
(0.0854859 0.0378953 0)
(0.0866516 0.0362907 0)
(0.0878351 0.0345735 0)
(0.0890342 0.0327357 0)
(0.0902443 0.03077 0)
(0.0914583 0.0286697 0)
(0.0926658 0.0264297 0)
(0.0938532 0.0240469 0)
(0.095002 0.02152 0)
(0.0960934 0.0188504 0)
(0.097102 0.0160387 0)
(0.0980106 0.0130865 0)
(0.0987828 0.00999085 0)
(0.09941 0.00676015 0)
(0.0998079 0.00340531 0)
(0.1 -1.6263e-18 0)
(6.77626e-21 0 0)
(0.000163863 0.00314037 0)
(0.000509063 0.00627863 0)
(0.00106127 0.00933812 0)
(0.00174857 0.0122961 0)
(0.00256304 0.015136 0)
(0.00347401 0.0178559 0)
(0.00446914 0.0204529 0)
(0.0055289 0.0229256 0)
(0.00663847 0.0252716 0)
(0.00778198 0.02749 0)
(0.00894653 0.0295811 0)
(0.010121 0.0315471 0)
(0.011297 0.0333919 0)
(0.0124684 0.0351207 0)
(0.0136311 0.0367394 0)
(0.0147824 0.0382543 0)
(0.0159212 0.0396721 0)
(0.017047 0.0409989 0)
(0.01816 0.0422409 0)
(0.0192609 0.0434038 0)
(0.0203505 0.0444927 0)
(0.0214297 0.0455125 0)
(0.0224996 0.0464675 0)
(0.0235612 0.0473617 0)
(0.0246152 0.0481988 0)
(0.0256626 0.0489821 0)
(0.0267042 0.0497145 0)
(0.0277406 0.0503988 0)
(0.0287725 0.0510376 0)
(0.0298004 0.0516331 0)
(0.0308249 0.0521876 0)
(0.0318463 0.0527029 0)
(0.032865 0.0531809 0)
(0.0338815 0.0536233 0)
(0.0348959 0.0540316 0)
(0.0359086 0.0544073 0)
(0.0369198 0.0547516 0)
(0.0379298 0.0550658 0)
(0.0389387 0.055351 0)
(0.0399466 0.0556081 0)
(0.0409538 0.0558381 0)
(0.0419603 0.0560418 0)
(0.0429663 0.0562198 0)
(0.0439719 0.0563729 0)
(0.044977 0.0565015 0)
(0.045982 0.0566061 0)
(0.0469867 0.0566871 0)
(0.0479912 0.0567447 0)
(0.0489956 0.0567792 0)
(0.05 0.0567907 0)
(0.0510044 0.0567792 0)
(0.0520089 0.0567447 0)
(0.0530134 0.0566871 0)
(0.0540181 0.0566061 0)
(0.055023 0.0565015 0)
(0.0560282 0.0563729 0)
(0.0570337 0.0562198 0)
(0.0580397 0.0560418 0)
(0.0590463 0.0558381 0)
(0.0600534 0.0556081 0)
(0.0610614 0.055351 0)
(0.0620703 0.0550658 0)
(0.0630802 0.0547516 0)
(0.0640914 0.0544073 0)
(0.0651042 0.0540316 0)
(0.0661186 0.0536233 0)
(0.067135 0.0531809 0)
(0.0681538 0.0527029 0)
(0.0691752 0.0521876 0)
(0.0701996 0.0516331 0)
(0.0712275 0.0510376 0)
(0.0722594 0.0503988 0)
(0.0732958 0.0497145 0)
(0.0743374 0.0489821 0)
(0.0753848 0.0481989 0)
(0.0764389 0.0473618 0)
(0.0775004 0.0464675 0)
(0.0785703 0.0455125 0)
(0.0796495 0.0444927 0)
(0.0807391 0.0434038 0)
(0.08184 0.0422409 0)
(0.082953 0.0409989 0)
(0.0840788 0.0396721 0)
(0.0852176 0.0382544 0)
(0.086369 0.0367394 0)
(0.0875316 0.0351207 0)
(0.088703 0.0333919 0)
(0.0898791 0.0315471 0)
(0.0910536 0.0295811 0)
(0.0922181 0.02749 0)
(0.0933616 0.0252717 0)
(0.0944712 0.0229256 0)
(0.0955309 0.0204529 0)
(0.096526 0.0178559 0)
(0.097437 0.015136 0)
(0.0982515 0.0122961 0)
(0.0989388 0.00933816 0)
(0.0994909 0.00627867 0)
(0.0998361 0.0031404 0)
(0.1 -1.30477e-17 0)
(1.4745e-21 4.75457e-20 0)
(0.000139026 0.00291473 0)
(0.000438103 0.00585902 0)
(0.000925188 0.0087596 0)
(0.00154062 0.0115873 0)
(0.00227704 0.0143196 0)
(0.00310746 0.0169493 0)
(0.00402155 0.0194714 0)
(0.00500356 0.0218834 0)
(0.0060419 0.0241828 0)
(0.00712341 0.0263677 0)
(0.00823671 0.028437 0)
(0.0093712 0.0303911 0)
(0.0105181 0.0322318 0)
(0.0116705 0.0339623 0)
(0.0128229 0.0355867 0)
(0.0139715 0.0371101 0)
(0.0151138 0.0385378 0)
(0.0162482 0.0398752 0)
(0.017374 0.0411279 0)
(0.018491 0.0423011 0)
(0.0195992 0.0433997 0)
(0.0206991 0.0444285 0)
(0.0217913 0.0453918 0)
(0.0228763 0.0462935 0)
(0.0239547 0.0471372 0)
(0.0250273 0.0479264 0)
(0.0260945 0.0486642 0)
(0.027157 0.0493532 0)
(0.0282153 0.0499961 0)
(0.0292698 0.0505953 0)
(0.030321 0.051153 0)
(0.0313692 0.0516711 0)
(0.0324149 0.0521516 0)
(0.0334582 0.0525962 0)
(0.0344995 0.0530064 0)
(0.0355391 0.0533837 0)
(0.0365772 0.0537294 0)
(0.0376139 0.0540449 0)
(0.0386494 0.0543311 0)
(0.039684 0.0545891 0)
(0.0407177 0.0548199 0)
(0.0417507 0.0550242 0)
(0.042783 0.0552027 0)
(0.0438149 0.0553562 0)
(0.0448463 0.0554852 0)
(0.0458775 0.0555901 0)
(0.0469083 0.0556713 0)
(0.047939 0.0557291 0)
(0.0489695 0.0557636 0)
(0.05 0.0557752 0)
(0.0510305 0.0557636 0)
(0.0520611 0.0557291 0)
(0.0530917 0.0556713 0)
(0.0541226 0.0555901 0)
(0.0551537 0.0554852 0)
(0.0561851 0.0553562 0)
(0.057217 0.0552028 0)
(0.0582494 0.0550242 0)
(0.0592824 0.0548199 0)
(0.0603161 0.0545891 0)
(0.0613506 0.0543311 0)
(0.0623862 0.0540449 0)
(0.0634229 0.0537295 0)
(0.0644609 0.0533837 0)
(0.0655005 0.0530064 0)
(0.0665418 0.0525962 0)
(0.0675852 0.0521516 0)
(0.0686308 0.0516711 0)
(0.0696791 0.051153 0)
(0.0707302 0.0505953 0)
(0.0717848 0.0499961 0)
(0.072843 0.0493532 0)
(0.0739055 0.0486642 0)
(0.0749728 0.0479265 0)
(0.0760453 0.0471373 0)
(0.0771238 0.0462935 0)
(0.0782087 0.0453918 0)
(0.0793009 0.0444285 0)
(0.0804008 0.0433998 0)
(0.0815091 0.0423011 0)
(0.082626 0.0411279 0)
(0.0837518 0.0398753 0)
(0.0848863 0.0385378 0)
(0.0860286 0.0371101 0)
(0.0871772 0.0355867 0)
(0.0883296 0.0339623 0)
(0.0894819 0.0322318 0)
(0.0906289 0.0303911 0)
(0.0917633 0.028437 0)
(0.0928767 0.0263677 0)
(0.0939582 0.0241828 0)
(0.0949965 0.0218834 0)
(0.0959785 0.0194714 0)
(0.0968926 0.0169493 0)
(0.097723 0.0143196 0)
(0.0984594 0.0115874 0)
(0.0990748 0.00875965 0)
(0.0995619 0.00585906 0)
(0.099861 0.00291476 0)
(0.1 -2.4503e-17 0)
(6.77626e-21 0 0)
(0.000118047 0.00272093 0)
(0.000377361 0.00549172 0)
(0.00080758 0.00824468 0)
(0.00136034 0.0109481 0)
(0.00202967 0.0135759 0)
(0.00279169 0.0161168 0)
(0.00363688 0.0185631 0)
(0.00455168 0.0209112 0)
(0.00552651 0.023158 0)
(0.00655045 0.0253012 0)
(0.00761377 0.0273393 0)
(0.00870688 0.0292716 0)
(0.00982138 0.0310984 0)
(0.01095 0.0328216 0)
(0.0120867 0.0344439 0)
(0.0132268 0.0359688 0)
(0.0143669 0.0374006 0)
(0.0155045 0.0387438 0)
(0.0166379 0.0400032 0)
(0.0177661 0.0411835 0)
(0.0188886 0.0422894 0)
(0.0200051 0.0433252 0)
(0.0211159 0.0442951 0)
(0.022221 0.045203 0)
(0.0233209 0.0460524 0)
(0.0244158 0.0468468 0)
(0.0255063 0.0475892 0)
(0.0265927 0.0482825 0)
(0.0276753 0.0489292 0)
(0.0287546 0.0495318 0)
(0.0298309 0.0500925 0)
(0.0309044 0.0506133 0)
(0.0319756 0.0510962 0)
(0.0330446 0.0515428 0)
(0.0341117 0.0519549 0)
(0.0351771 0.0523338 0)
(0.0362411 0.052681 0)
(0.0373037 0.0529977 0)
(0.0383652 0.053285 0)
(0.0394257 0.0535439 0)
(0.0404853 0.0537755 0)
(0.0415442 0.0539805 0)
(0.0426024 0.0541596 0)
(0.0436601 0.0543136 0)
(0.0447174 0.054443 0)
(0.0457744 0.0545482 0)
(0.046831 0.0546296 0)
(0.0478875 0.0546875 0)
(0.0489438 0.0547222 0)
(0.05 0.0547338 0)
(0.0510563 0.0547222 0)
(0.0521126 0.0546875 0)
(0.053169 0.0546296 0)
(0.0542257 0.0545482 0)
(0.0552826 0.054443 0)
(0.0563399 0.0543136 0)
(0.0573976 0.0541596 0)
(0.0584559 0.0539805 0)
(0.0595148 0.0537755 0)
(0.0605744 0.053544 0)
(0.0616349 0.053285 0)
(0.0626964 0.0529977 0)
(0.063759 0.052681 0)
(0.0648229 0.0523338 0)
(0.0658883 0.0519549 0)
(0.0669554 0.0515428 0)
(0.0680245 0.0510962 0)
(0.0690956 0.0506133 0)
(0.0701692 0.0500925 0)
(0.0712455 0.0495318 0)
(0.0723247 0.0489292 0)
(0.0734074 0.0482825 0)
(0.0744937 0.0475893 0)
(0.0755842 0.0468469 0)
(0.0766791 0.0460525 0)
(0.077779 0.045203 0)
(0.0788841 0.0442951 0)
(0.0799949 0.0433252 0)
(0.0811115 0.0422894 0)
(0.0822339 0.0411836 0)
(0.0833621 0.0400033 0)
(0.0844955 0.0387438 0)
(0.0856331 0.0374006 0)
(0.0867732 0.0359688 0)
(0.0879134 0.0344439 0)
(0.0890501 0.0328217 0)
(0.0901787 0.0310985 0)
(0.0912932 0.0292716 0)
(0.0923863 0.0273393 0)
(0.0934496 0.0253012 0)
(0.0944735 0.023158 0)
(0.0954484 0.0209112 0)
(0.0963631 0.0185631 0)
(0.0972083 0.0161168 0)
(0.0979703 0.0135759 0)
(0.0986397 0.0109481 0)
(0.0991924 0.00824473 0)
(0.0996226 0.00549177 0)
(0.099882 0.00272096 0)
(0.1 -2.4503e-17 0)
(3.38813e-21 -1.0842e-19 0)
(0.000100598 0.00255507 0)
(0.000326034 0.00517044 0)
(0.000706873 0.00778589 0)
(0.00120459 0.0103699 0)
(0.00181511 0.0128953 0)
(0.0025176 0.0153479 0)
(0.00330315 0.0177179 0)
(0.00415949 0.02 0)
(0.00507818 0.0221904 0)
(0.00604985 0.0242866 0)
(0.00706611 0.0262867 0)
(0.00811852 0.0281895 0)
(0.00919934 0.0299946 0)
(0.0103015 0.0317028 0)
(0.0114188 0.0333156 0)
(0.0125461 0.0348354 0)
(0.0136794 0.0362655 0)
(0.0148154 0.0376096 0)
(0.0159518 0.0388716 0)
(0.0170869 0.0400556 0)
(0.0182195 0.0411657 0)
(0.0193489 0.0422062 0)
(0.0204748 0.0431808 0)
(0.0215969 0.0440933 0)
(0.0227152 0.0449472 0)
(0.0238299 0.0457457 0)
(0.0249412 0.046492 0)
(0.0260492 0.0471888 0)
(0.0271541 0.0478387 0)
(0.0282563 0.0484442 0)
(0.029356 0.0490076 0)
(0.0304533 0.0495308 0)
(0.0315486 0.0500158 0)
(0.032642 0.0504644 0)
(0.0337337 0.0508782 0)
(0.0348239 0.0512586 0)
(0.0359127 0.0516072 0)
(0.0370003 0.051925 0)
(0.0380869 0.0522134 0)
(0.0391726 0.0524732 0)
(0.0402574 0.0527056 0)
(0.0413416 0.0529112 0)
(0.0424251 0.053091 0)
(0.0435081 0.0532454 0)
(0.0445907 0.0533752 0)
(0.045673 0.0534807 0)
(0.046755 0.0535623 0)
(0.0478368 0.0536204 0)
(0.0489184 0.0536552 0)
(0.05 0.0536668 0)
(0.0510816 0.0536552 0)
(0.0521633 0.0536205 0)
(0.0532451 0.0535623 0)
(0.054327 0.0534807 0)
(0.0554093 0.0533752 0)
(0.0564919 0.0532454 0)
(0.0575749 0.053091 0)
(0.0586585 0.0529112 0)
(0.0597426 0.0527056 0)
(0.0608274 0.0524732 0)
(0.0619131 0.0522134 0)
(0.0629997 0.051925 0)
(0.0640873 0.0516072 0)
(0.0651762 0.0512586 0)