/*--------------------------------*- C++ -*----------------------------------*\
| =========                 |                                                 |
| \\      /  F ield         | foam-extend: Open Source CFD                    |
|  \\    /   O peration     | Version:     4.1                                |
|   \\  /    A nd           | Web:         http://www.foam-extend.org         |
|    \\/     M anipulation  |                                                 |
\*---------------------------------------------------------------------------*/
FoamFile
{
    version     2.0;
    format      ascii;
    class       volSymmTensorField;
    location    "1";
    object      sigma;
}
// * * * * * * * * * * * * * * * * * * * * * * * * * * * * * * * * * * * * * //

dimensions      [1 -1 -2 0 0 0 0];

internalField   nonuniform List<symmTensor> 
10000
(
(7.89257e+07 1.18539e+06 3.39036e-11 7.62756e+07 2.58637e-11 7.75231e+07)
(1.90728e+07 656388 -1.15555e-11 1.62633e+07 -1.72699e-12 1.76504e+07)
(1.38991e+07 410916 -1.74334e-11 1.11243e+07 -1.53398e-11 1.24992e+07)
(2.45765e+06 256442 4.15027e-13 -68923.7 -3.43903e-13 1.19317e+06)
(-1.01297e+06 169950 -2.10507e-12 -3.35376e+06 5.13551e-13 -2.18118e+06)
(-3.28551e+06 110794 -6.2295e-12 -5.44706e+06 -2.96813e-12 -4.36192e+06)
(-3.87452e+06 73711.8 5.49358e-12 -5.8746e+06 2.04891e-12 -4.86969e+06)
(-3.96708e+06 48627.3 -8.22463e-13 -5.81823e+06 4.80699e-13 -4.88776e+06)
(-3.69788e+06 32574 -3.26956e-12 -5.41576e+06 -1.28367e-12 -4.55227e+06)
(-3.34296e+06 21989.5 -2.198e-12 -4.94331e+06 -5.1254e-13 -4.13899e+06)
(-2.95828e+06 15218.5 -3.01977e-12 -4.45702e+06 -1.53995e-12 -3.70394e+06)
(-2.60769e+06 10807.7 -4.6251e-12 -4.01975e+06 -1.51278e-12 -3.31041e+06)
(-2.29946e+06 7948.17 -9.156e-13 -3.6385e+06 1.48453e-14 -2.96601e+06)
(-2.04074e+06 6034.56 -5.13049e-12 -3.31886e+06 -1.70835e-12 -2.67712e+06)
(-1.82514e+06 4711.11 -5.98198e-12 -3.05289e+06 -2.29125e-12 -2.43657e+06)
(-1.64681e+06 3737.27 2.42967e-12 -2.8332e+06 3.48162e-13 -2.23776e+06)
(-1.49783e+06 2973.48 -2.27251e-12 -2.65048e+06 -3.6125e-13 -2.07208e+06)
(-1.37168e+06 2333.83 -1.23147e-12 -2.49703e+06 -4.48352e-13 -1.93242e+06)
(-1.26257e+06 1771.9 -2.94244e-12 -2.36597e+06 -9.35917e-13 -1.81246e+06)
(-1.16606e+06 1262.75 -3.13655e-12 -2.25197e+06 -1.07973e-12 -1.70731e+06)
(-1.07868e+06 795.231 2.85964e-13 -2.15084e+06 -1.23212e-13 -1.61315e+06)
(-997980 365.156 -2.66587e-12 -2.05946e+06 -1.13514e-12 -1.52719e+06)
(-922199 -27.9924 3.49924e-14 -1.97558e+06 -1.67152e-14 -1.44744e+06)
(-850174 -383.434 -1.16431e-12 -1.89759e+06 -5.64726e-13 -1.37251e+06)
(-781162 -700.192 -1.69676e-12 -1.82439e+06 -8.3741e-13 -1.30147e+06)
(-714728 -977.733 1.0696e-12 -1.75525e+06 5.60007e-13 -1.23375e+06)
(-650644 -1216.16 -7.4528e-13 -1.68969e+06 -4.13478e-13 -1.169e+06)
(-588823 -1416.24 -4.0547e-14 -1.62741e+06 2.16086e-14 -1.10701e+06)
(-529262 -1579.33 -7.13806e-13 -1.56823e+06 -3.84569e-13 -1.0477e+06)
(-472010 -1707.22 -9.04826e-13 -1.51204e+06 -7.68926e-13 -991034)
(-417139 -1802.02 1.44422e-12 -1.45879e+06 9.32062e-13 -937027)
(-364727 -1866.04 1.80379e-13 -1.40844e+06 1.38368e-13 -885696)
(-314852 -1901.64 -7.81049e-13 -1.36096e+06 -4.99111e-13 -837069)
(-267583 -1911.23 -4.33614e-13 -1.31634e+06 -2.16215e-13 -791170)
(-222978 -1897.15 -1.65451e-13 -1.27456e+06 -3.54526e-13 -748019)
(-181085 -1861.63 1.09059e-12 -1.23559e+06 9.1248e-13 -707628)
(-141939 -1806.8 1.39778e-12 -1.19941e+06 3.03616e-13 -670004)
(-105568 -1734.66 -1.29729e-12 -1.16599e+06 -1.3202e-12 -635145)
(-71988.1 -1647.08 -1.78975e-12 -1.13531e+06 -4.44404e-13 -603044)
(-41211.9 -1545.78 -2.70117e-15 -1.10732e+06 -3.86053e-13 -573693)
(-13244.9 -1432.36 1.77917e-12 -1.082e+06 3.87615e-13 -547077)
(11911.2 -1308.31 -2.96645e-13 -1.05932e+06 -5.67657e-13 -523182)
(34257.3 -1175.03 -1.07056e-12 -1.03924e+06 1.47142e-14 -501991)
(53796.6 -1033.8 -3.95104e-13 -1.02174e+06 -1.00542e-12 -483490)
(70533 -885.846 -5.22706e-13 -1.00679e+06 9.65126e-14 -467662)
(84471 -732.301 1.25649e-12 -994372 5.03951e-13 -454496)
(95615.2 -574.26 2.26137e-13 -984459 -2.71551e-13 -443977)
(103969 -412.768 3.07112e-13 -977038 1.53568e-13 -436098)
(109537 -248.835 -1.02321e-13 -972098 -1.15428e-12 -430849)
(112320 -83.4477 -1.42658e-12 -969629 1.32954e-13 -428226)
(112320 82.4236 1.14042e-12 -969630 1.35023e-13 -428226)
(109537 247.812 3.80952e-14 -972098 -4.29799e-13 -430849)
(103969 411.746 -2.12012e-14 -977038 1.43185e-13 -436098)
(95614.8 573.24 5.95184e-14 -984459 -2.86127e-13 -443978)
(84470.4 731.283 -8.7036e-13 -994373 -9.3321e-13 -454496)
(70532.2 884.832 1.13913e-12 -1.00679e+06 7.4887e-13 -467663)
(53795.6 1032.8 2.23948e-13 -1.02174e+06 -5.69896e-13 -483491)
(34256.2 1174.03 -3.48877e-13 -1.03925e+06 1.74083e-13 -501992)
(11909.8 1307.32 1.4832e-13 -1.05932e+06 -2.83829e-13 -523183)
(-13246.5 1431.37 -7.08074e-13 -1.08201e+06 -5.52006e-13 -547079)
(-41213.7 1544.79 9.38679e-13 -1.10732e+06 4.85624e-13 -573695)
(-71990 1646.11 4.11653e-13 -1.13531e+06 -5.63554e-13 -603046)
(-105570 1733.7 4.4772e-13 -1.166e+06 2.9356e-14 -635147)
(-141941 1805.85 4.93427e-13 -1.19941e+06 -5.60529e-13 -670006)
(-181086 1860.68 -1.28413e-12 -1.23559e+06 -4.57929e-13 -707630)
(-222979 1896.21 -4.91983e-13 -1.27456e+06 1.25494e-12 -748020)
(-267582 1910.3 3.12857e-13 -1.31634e+06 -2.78023e-13 -791170)
(-314850 1900.71 -1.61042e-12 -1.36096e+06 7.48391e-13 -837067)
(-364723 1865.1 -3.60755e-13 -1.40843e+06 2.76737e-13 -885692)
(-417131 1801.07 8.93755e-13 -1.45878e+06 -7.40967e-13 -937020)
(-471999 1706.23 -8.05099e-14 -1.51203e+06 4.62496e-13 -991023)
(-529246 1578.29 4.39346e-13 -1.56821e+06 -2.75567e-13 -1.04768e+06)
(-588801 1415.12 4.36518e-13 -1.62739e+06 -2.97065e-14 -1.10699e+06)
(-650616 1214.93 2.26181e-12 -1.68966e+06 -1.22618e-12 -1.16897e+06)
(-714693 976.367 -1.13969e-12 -1.75521e+06 4.8373e-13 -1.23372e+06)
(-781120 698.646 -5.20914e-14 -1.82435e+06 -6.99207e-16 -1.30143e+06)
(-850125 381.665 1.77556e-12 -1.89754e+06 -8.33929e-13 -1.37246e+06)
(-922144 25.9578 -1.73834e-12 -1.97552e+06 9.05647e-13 -1.44738e+06)
(-997923 -367.497 1.32351e-12 -2.0594e+06 -5.63565e-13 -1.52713e+06)
(-1.07863e+06 -797.914 -2.13422e-13 -2.15078e+06 5.0635e-13 -1.61309e+06)
(-1.16601e+06 -1265.79 -1.39311e-12 -2.25192e+06 6.17622e-13 -1.70726e+06)
(-1.26254e+06 -1775.3 7.75263e-13 -2.36594e+06 -6.35582e-13 -1.81242e+06)
(-1.37167e+06 -2337.55 1.83221e-13 -2.49702e+06 -2.63515e-13 -1.93241e+06)
(-1.49785e+06 -2977.45 -9.12023e-13 -2.6505e+06 6.54215e-13 -2.0721e+06)
(-1.64688e+06 -3741.35 -1.85229e-12 -2.83326e+06 1.00649e-12 -2.23783e+06)
(-1.82525e+06 -4715.12 -1.44739e-12 -3.053e+06 4.89413e-13 -2.43669e+06)
(-2.04092e+06 -6038.23 3.27311e-13 -3.31904e+06 -6.93352e-13 -2.6773e+06)
(-2.2997e+06 -7951.18 1.26846e-12 -3.63874e+06 -2.59585e-13 -2.96625e+06)
(-2.608e+06 -10809.6 -2.83821e-12 -4.02005e+06 1.44155e-12 -3.31071e+06)
(-2.95863e+06 -15219 -8.28932e-13 -4.45737e+06 8.46959e-14 -3.70429e+06)
(-3.34333e+06 -21988.1 1.521e-26 -4.94369e+06 -1.21238e-26 -4.13937e+06)
(-3.69825e+06 -32570.4 6.52592e-13 -5.41612e+06 -8.7965e-13 -4.55263e+06)
(-3.96737e+06 -48621.3 -7.61578e-13 -5.81852e+06 2.46293e-13 -4.88805e+06)
(-3.87469e+06 -73703.4 -1.65562e-12 -5.87476e+06 5.31996e-13 -4.86985e+06)
(-3.28548e+06 -110784 1.23818e-12 -5.44702e+06 -6.38212e-14 -4.36189e+06)
(-1.01272e+06 -169938 -4.8257e-12 -3.35349e+06 2.68618e-12 -2.18092e+06)
(2.45816e+06 -256430 -2.83832e-12 -68401.5 1.34612e-12 1.19368e+06)
(1.38997e+07 -410907 -7.86614e-12 1.11249e+07 2.9949e-12 1.24998e+07)
(1.90734e+07 -656382 -2.36831e-12 1.62639e+07 -8.84926e-13 1.7651e+07)
(7.89255e+07 -1.18539e+06 -7.96308e-13 7.62754e+07 -3.49023e-12 7.75228e+07)
(-2.1976e+07 1.85039e+06 -6.31742e-12 -2.32146e+07 -4.23737e-11 -2.25727e+07)
(-3.17337e+07 1.41052e+06 1.45857e-11 -3.37081e+07 4.02309e-11 -3.26882e+07)
(1.5943e+06 1.00466e+06 6.13057e-12 -795931 1.2412e-11 398786)
(593543 696516 -1.35265e-12 -1.82757e+06 -5.21712e-13 -616397)
(6.65558e+06 494746 3.9653e-12 4.28055e+06 5.51943e-12 5.46259e+06)
(6.00771e+06 351949 -2.81695e-12 3.75054e+06 -6.26065e-12 4.87425e+06)
(6.60666e+06 255103 -4.40134e-12 4.48272e+06 -5.07681e-12 5.53915e+06)
(5.86553e+06 185837 5.65345e-12 3.88294e+06 7.52168e-12 4.86936e+06)
(5.44181e+06 137452 2.23736e-12 3.59379e+06 2.51886e-12 4.51328e+06)
(4.8174e+06 102831 -1.51593e-12 3.09327e+06 -1.87002e-12 3.95138e+06)
(4.34374e+06 78247.1 4.1705e-12 2.72922e+06 5.46322e-12 3.53294e+06)
(3.89989e+06 60464.8 -1.62973e-12 2.38042e+06 -1.20161e-12 3.13701e+06)
(3.55151e+06 47494.2 1.03368e-12 2.1129e+06 7.58597e-13 2.82937e+06)
(3.25965e+06 37806.8 2.44242e-12 1.88899e+06 3.92252e-12 2.57175e+06)
(3.02855e+06 30411.7 -4.22211e-12 1.7144e+06 -7.01665e-12 2.3691e+06)
(2.84031e+06 24599.6 -5.53416e-13 1.57283e+06 -1.97575e-13 2.20436e+06)
(2.68876e+06 19906.6 1.03361e-12 1.45957e+06 2.16381e-12 2.07209e+06)
(2.56414e+06 16015.2 1.52636e-12 1.36622e+06 1.36784e-12 1.96322e+06)
(2.46082e+06 12719 4.25521e-13 1.28831e+06 1.07671e-12 1.87269e+06)
(2.37334e+06 9880.13 -2.80265e-12 1.22139e+06 -4.14031e-12 1.79557e+06)
(2.2981e+06 7408.98 6.02917e-13 1.16268e+06 7.07377e-13 1.72866e+06)
(2.23216e+06 5245.36 1.56741e-12 1.10995e+06 1.61299e-12 1.66939e+06)
(2.17352e+06 3348.45 -1.19734e-12 1.06175e+06 -1.27797e-12 1.61602e+06)
(2.12064e+06 1689 2.65325e-12 1.01703e+06 2.68977e-12 1.56727e+06)
(2.07249e+06 244.925 -2.06728e-12 975129 -1.96431e-12 1.52229e+06)
(2.02829e+06 -1001.71 -9.12244e-13 935592 -7.79623e-13 1.48046e+06)
(1.98751e+06 -2066.38 6.34113e-13 898148 4.6898e-13 1.44139e+06)
(1.94977e+06 -2963.1 -9.42088e-13 862627 -1.14808e-12 1.40479e+06)
(1.91477e+06 -3704.93 2.16605e-12 828931 1.40013e-12 1.37048e+06)
(1.88231e+06 -4304.25 -2.68769e-12 797000 -1.76519e-12 1.33831e+06)
(1.85221e+06 -4772.81 -2.41263e-12 766801 -1.44044e-12 1.3082e+06)
(1.82434e+06 -5121.81 2.60973e-12 738309 1.61114e-12 1.28004e+06)
(1.79858e+06 -5361.82 8.6523e-13 711506 4.96767e-13 1.25379e+06)
(1.77482e+06 -5502.83 3.05187e-13 686374 1.62498e-13 1.22937e+06)
(1.75296e+06 -5554.18 -2.32987e-12 662894 -1.14687e-12 1.20672e+06)
(1.73292e+06 -5524.59 -1.03786e-12 641045 -2.44466e-13 1.18579e+06)
(1.7146e+06 -5422.17 2.91795e-12 620803 1.21404e-12 1.16653e+06)
(1.69794e+06 -5254.44 6.97321e-13 602145 5.10311e-13 1.14889e+06)
(1.68284e+06 -5028.37 1.65652e-14 585043 5.71537e-15 1.13281e+06)
(1.66926e+06 -4750.42 -8.75108e-13 569472 -2.72357e-13 1.11824e+06)
(1.65711e+06 -4426.58 -1.47764e-12 555408 -4.11465e-13 1.10515e+06)
(1.64634e+06 -4062.41 3.82421e-13 542826 1.4576e-12 1.09349e+06)
(1.63691e+06 -3663.1 2.1356e-12 531702 7.38016e-13 1.08322e+06)
(1.62875e+06 -3233.52 1.15675e-13 522017 5.84763e-13 1.07431e+06)
(1.62184e+06 -2778.26 -2.36771e-12 513752 -3.68829e-13 1.06673e+06)
(1.61614e+06 -2301.65 -2.94177e-13 506889 -3.72751e-14 1.06045e+06)
(1.6116e+06 -1807.83 4.17601e-13 501416 1.2021e-12 1.05545e+06)
(1.60823e+06 -1300.8 1.48982e-12 497320 1.04015e-13 1.05172e+06)
(1.60599e+06 -784.415 7.88888e-14 494595 1.76176e-12 1.04924e+06)
(1.60487e+06 -262.448 -1.1916e-12 493234 2.77051e-13 1.048e+06)
(1.60487e+06 261.373 -4.37846e-15 493234 2.93692e-13 1.048e+06)
(1.60599e+06 783.34 -5.25869e-14 494595 1.17451e-12 1.04924e+06)
(1.60823e+06 1299.73 -2.94612e-13 497321 2.05687e-14 1.05172e+06)
(1.61161e+06 1806.76 2.21818e-12 501416 1.23384e-12 1.05545e+06)
(1.61614e+06 2300.57 -1.99217e-12 506889 6.04562e-12 1.06045e+06)
(1.62184e+06 2777.19 -1.58268e-12 513752 -4.34838e-12 1.06673e+06)
(1.62875e+06 3232.45 1.19512e-12 522018 1.18674e-12 1.07431e+06)
(1.63691e+06 3662.03 -2.93119e-13 531703 6.32068e-14 1.08322e+06)
(1.64634e+06 4061.33 1.46679e-12 542827 7.28875e-13 1.09349e+06)
(1.65711e+06 4425.5 -2.62408e-12 555409 6.10248e-12 1.10515e+06)
(1.66926e+06 4749.34 6.45586e-14 569474 -5.00301e-12 1.11825e+06)
(1.68284e+06 5027.29 6.52367e-13 585044 1.04235e-12 1.13281e+06)
(1.69794e+06 5253.35 -6.9732e-13 602146 5.10311e-13 1.14889e+06)
(1.7146e+06 5421.07 1.83183e-12 620805 1.83028e-13 1.16654e+06)
(1.73292e+06 5523.47 -4.66627e-12 641047 6.43907e-12 1.1858e+06)
(1.75296e+06 5553.04 -2.30567e-13 662896 -3.34992e-12 1.20672e+06)
(1.77482e+06 5501.67 1.6882e-12 686375 -8.89271e-14 1.22937e+06)
(1.79858e+06 5360.63 1.71265e-13 711506 -2.87081e-13 1.25379e+06)
(1.82434e+06 5120.57 2.42642e-12 738308 -1.32435e-12 1.28004e+06)
(1.85221e+06 4771.53 -4.90973e-12 766798 6.25185e-12 1.30819e+06)
(1.8823e+06 4302.91 9.61166e-13 796995 -3.05654e-12 1.33831e+06)
(1.91476e+06 3703.53 -6.46523e-15 828923 4.80669e-13 1.37047e+06)
(1.94976e+06 2961.62 2.88508e-13 862615 -2.32384e-13 1.40478e+06)
(1.9875e+06 2064.83 -1.67442e-13 898132 8.81841e-13 1.44137e+06)
(2.02827e+06 1000.08 -7.12471e-12 935571 7.34609e-12 1.48044e+06)
(2.07246e+06 -246.631 1.87745e-12 975103 -2.12392e-12 1.52226e+06)
(2.12061e+06 -1690.77 -5.89417e-13 1.017e+06 5.25839e-13 1.56724e+06)
(2.17348e+06 -3350.28 2.78813e-13 1.06172e+06 -3.36595e-13 1.61598e+06)
(2.23212e+06 -5247.23 4.60813e-13 1.10991e+06 -8.75393e-13 1.66935e+06)
(2.29806e+06 -7410.86 -6.95615e-12 1.16264e+06 6.02661e-12 1.72862e+06)
(2.3733e+06 -9881.99 6.13945e-12 1.22135e+06 -4.52409e-12 1.79553e+06)
(2.46078e+06 -12720.8 -7.55993e-12 1.28828e+06 6.39671e-12 1.87266e+06)
(2.56413e+06 -16016.9 -3.18127e-13 1.36621e+06 4.19697e-13 1.9632e+06)
(2.68876e+06 -19908.2 2.2953e-13 1.45957e+06 -5.64679e-13 2.07209e+06)
(2.84034e+06 -24601 -8.50636e-12 1.57286e+06 6.39034e-12 2.20439e+06)
(3.02862e+06 -30412.9 1.03441e-11 1.71447e+06 -7.66457e-12 2.36917e+06)
(3.25977e+06 -37807.9 -7.19453e-12 1.8891e+06 4.7609e-12 2.57186e+06)
(3.55167e+06 -47495 2.06735e-12 2.11305e+06 -1.5172e-12 2.82953e+06)
(3.90009e+06 -60465.5 -2.64483e-13 2.38062e+06 8.13992e-13 3.13721e+06)
(4.34398e+06 -78247.7 -9.47973e-12 2.72946e+06 6.40004e-12 3.53318e+06)
(4.81767e+06 -102832 1.01106e-11 3.09353e+06 -8.02807e-12 3.95164e+06)
(5.44207e+06 -137452 -1.33259e-11 3.59404e+06 1.1908e-11 4.51354e+06)
(5.86575e+06 -185837 -3.14325e-12 3.88316e+06 2.93956e-12 4.86958e+06)
(6.60679e+06 -255103 2.3719e-12 4.48286e+06 -3.39904e-12 5.53928e+06)
(6.00772e+06 -351949 -1.52965e-11 3.75056e+06 1.31551e-11 4.87426e+06)
(6.65539e+06 -494746 1.46317e-11 4.28038e+06 -1.2624e-11 5.46241e+06)
(593242 -696514 -1.33159e-11 -1.82784e+06 1.4418e-11 -616683)
(1.59376e+06 -1.00466e+06 2.91648e-12 -796443 -3.16235e-12 398257)
(-3.17339e+07 -1.41051e+06 1.86019e-12 -3.37082e+07 -4.91634e-12 -3.26883e+07)
(-2.19763e+07 -1.85037e+06 -2.25752e-12 -2.32148e+07 1.91757e-12 -2.25729e+07)
(3.18937e+07 1.74699e+06 -4.82334e-13 3.13591e+07 -2.33755e-13 3.15948e+07)
(-7.00591e+06 1.45261e+06 -1.28147e-12 -8.26505e+06 -4.73685e-12 -7.62784e+06)
(9.39189e+06 1.15883e+06 2.98272e-28 7.51404e+06 -2.00778e-27 8.44451e+06)
(141207 909132 -4.00083e-13 -1.9857e+06 -5.63476e-13 -921324)
(3.05396e+06 703699 -2.3971e-13 824594 -1.25454e-12 1.93734e+06)
(775736 540751 3.36481e-12 -1.42959e+06 5.51905e-12 -326599)
(1.24827e+06 416131 2.7202e-12 -884293 2.85405e-12 181806)
(678450 320672 5.7377e-13 -1.35006e+06 -5.08141e-13 -335469)
(753650 248565 6.4447e-12 -1.16318e+06 7.01647e-12 -204562)
(617043 193843 5.85005e-12 -1.18864e+06 5.54773e-12 -285511)
(634652 152485 -4.50502e-13 -1.06773e+06 -6.81694e-13 -216321)
(607000 121006 5.56788e-12 -1.00243e+06 4.71154e-12 -197518)
(615493 96918 -1.37098e-29 -912686 4.18062e-28 -148448)
(613006 78254.2 4.3044e-12 -845361 3.33361e-12 -116061)
(618467 63599.8 4.12746e-12 -780780 3.2107e-12 -81075)
(620962 51895.7 -3.16393e-12 -728692 -2.26949e-12 -53811.3)
(625307 42387.1 2.95334e-12 -683059 2.33597e-12 -28847.3)
(629182 34527.1 -1.4781e-27 -644985 -1.93303e-27 -7893.29)
(633982 27929.6 4.50386e-12 -611975 3.97631e-12 10992.7)
(639294 22319.2 1.47815e-12 -583462 1.2567e-12 27888)
(645536 17501.1 -2.37545e-12 -558197 -2.28785e-12 43625.8)
(652623 13335.4 2.92853e-12 -535560 2.8482e-12 58472.6)
(660625 9721.04 -1.2268e-12 -514897 -1.2377e-12 72791.3)
(669457 6582.75 1.13693e-12 -495809 1.25181e-12 86737.4)
(679050 3863.16 2.79063e-12 -477968 3.07949e-12 100441)
(689287 1516.79 -9.8429e-13 -461166 -1.31472e-12 113946)
(700047 -493.662 3.01069e-12 -445253 3.0614e-12 127270)
(711200 -2199.91 2.35503e-13 -430135 3.02035e-13 140392)
(722619 -3629.66 -4.74663e-13 -415754 4.96746e-13 153279)
(734180 -4807.7 1.59616e-12 -402073 2.51882e-12 165887)
(745769 -5756.51 -9.85961e-13 -389075 -2.03771e-12 178169)
(757278 -6496.71 4.85088e-13 -376750 4.78008e-13 190074)
(768611 -7047.28 -4.73176e-13 -365093 -4.655e-13 201557)
(779681 -7425.8 3.4558e-13 -354105 1.0464e-12 212575)
(790410 -7648.52 7.59595e-13 -343785 1.51758e-12 223089)
(800730 -7730.49 -8.21326e-13 -334133 -2.2882e-12 233066)
(810581 -7685.64 1.76082e-12 -325147 1.20293e-12 242474)
(819909 -7526.9 -6.49284e-14 -316826 4.91438e-13 251290)
(828667 -7266.21 -1.39881e-12 -309168 -1.99443e-13 259490)
(836817 -6914.69 7.95873e-13 -302169 1.61429e-12 267057)
(844323 -6482.68 -1.37402e-13 -295825 -1.42724e-12 273975)
(851154 -5979.8 -6.14916e-13 -290131 -1.27963e-12 280231)
(857285 -5415.08 -3.71152e-13 -285084 -3.65116e-13 285814)
(862695 -4797 5.42973e-13 -280680 1.28131e-12 290717)
(867364 -4133.58 -2.49491e-13 -276913 -1.51366e-12 294930)
(871277 -3432.44 -2.44159e-13 -273780 -1.81761e-12 298450)
(874422 -2700.86 1.45585e-13 -271278 -1.48681e-12 301270)
(876789 -1945.89 -4.16077e-13 -269404 -1.53661e-12 303389)
(878370 -1174.35 -2.89392e-13 -268156 3.08335e-13 304802)
(879163 -392.919 -2.24631e-14 -267532 -1.51683e-12 305510)
(879163 391.795 3.26145e-13 -267532 -1.5209e-12 305510)
(878370 1173.22 2.90161e-13 -268156 2.9108e-13 304802)
(876789 1944.77 -1.9104e-13 -269404 -1.49573e-12 303389)
(874422 2699.74 -5.97673e-12 -271278 -6.34993e-13 301270)
(871277 3431.31 4.94332e-12 -273780 1.20063e-12 298450)
(867364 4132.45 6.59716e-12 -276913 -3.96014e-12 294930)
(862695 4795.87 -5.05689e-12 -280680 1.77958e-12 290716)
(857285 5413.94 3.43082e-13 -285085 -1.51116e-12 285814)
(851154 5978.65 -5.68844e-12 -290132 -6.48359e-14 280231)
(844322 6481.52 5.41474e-12 -295825 -3.24542e-13 273974)
(836817 6913.52 6.95207e-12 -302169 -4.54785e-12 267057)
(828667 7265.02 -5.62953e-12 -309168 8.09155e-13 259490)
(819909 7525.69 1.49331e-12 -316827 -1.83403e-12 251289)
(810581 7684.41 -5.19073e-12 -325147 1.57968e-12 242474)
(800731 7729.23 2.79707e-12 -334133 2.31141e-13 233066)
(790411 7647.22 7.85204e-12 -343785 -6.93478e-12 223090)
(779682 7424.47 -3.73026e-12 -354105 8.2131e-13 212576)
(768612 7045.9 7.37673e-13 -365092 -1.63438e-12 201558)
(757280 6495.28 -5.11562e-12 -376748 2.07855e-12 190076)
(745771 5755.03 4.34337e-12 -389072 -2.04825e-12 178171)
(734183 4806.17 8.15771e-12 -402070 -7.1344e-12 165891)
(722623 3628.09 -4.26902e-12 -415749 2.53357e-12 153283)
(711205 2198.29 1.34632e-12 -430129 -1.88107e-12 140397)
(700053 492.02 -4.44206e-12 -445245 3.3447e-12 127276)
(689294 -1518.44 3.84069e-12 -461157 -3.02994e-12 113955)
(679059 -3864.8 9.17153e-12 -477957 -9.09846e-12 100450)
(669466 -6584.35 -3.50934e-12 -495797 3.28066e-12 86747.8)
(660635 -9722.55 6.15194e-13 -514884 -6.22237e-13 72802.3)
(652632 -13336.8 -5.04201e-12 -535548 5.50682e-12 58483.5)
(645545 -17502.3 5.3921e-12 -558186 -6.18947e-12 43635.7)
(639301 -22320.3 -3.26323e-14 -583454 -5.62944e-14 27895.6)
(633986 -27930.5 -7.13845e-12 -611970 8.2181e-12 10996.6)
(629181 -34527.8 9.99037e-12 -644987 -1.12326e-11 -7894.82)
(625299 -42387.6 -9.70586e-12 -683069 1.17806e-11 -28856.2)
(620947 -51896.1 5.90044e-12 -728713 -8.64652e-12 -53829.2)
(618443 -63600.2 2.16542e-13 -780812 -8.02874e-13 -81103.5)
(612972 -78254.6 -4.98108e-12 -845406 7.36573e-12 -116101)
(615448 -96918.7 8.97118e-12 -912743 -1.15201e-11 -148499)
(606946 -121007 -1.11998e-11 -1.0025e+06 1.62902e-11 -197578)
(634593 -152487 5.17836e-12 -1.0678e+06 -9.18179e-12 -216388)
(616984 -193846 -1.60256e-12 -1.18871e+06 1.43434e-12 -285576)
(753595 -248568 -9.22496e-12 -1.16325e+06 1.43138e-11 -204622)
(678415 -320676 1.35668e-11 -1.3501e+06 -2.01794e-11 -335506)
(1.24825e+06 -416135 -1.07646e-11 -884308 1.82891e-11 181788)
(775771 -540755 1.12225e-11 -1.42954e+06 -2.12961e-11 -326556)
(3.05399e+06 -703702 1.19846e-13 824650 -6.27281e-13 1.93738e+06)
(141374 -909133 -1.13891e-11 -1.9855e+06 2.63734e-11 -921139)
(9.39188e+06 -1.15883e+06 1.2252e-11 7.51407e+06 -3.35393e-11 8.44452e+06)
(-7.00544e+06 -1.4526e+06 -7.10725e-12 -8.26454e+06 3.60988e-11 -7.62736e+06)
(3.18932e+07 -1.74697e+06 2.91177e-12 3.13586e+07 -3.57003e-11 3.15943e+07)
(9.87556e+06 1.55315e+06 1.10323e-13 9.43228e+06 1.54436e-12 9.64426e+06)
(-1.6342e+07 1.41905e+06 -4.79603e-14 -1.73149e+07 -2.66437e-13 -1.68116e+07)
(2.95782e+06 1.2109e+06 1.16568e-12 1.49433e+06 4.26264e-12 2.22385e+06)
(-2.17544e+06 1.01436e+06 4.6188e-13 -3.93304e+06 5.62036e-13 -3.05118e+06)
(3.11013e+06 831021 -7.97066e-27 1.16357e+06 -1.61975e-26 2.13471e+06)
(2.02775e+06 672827 -5.36445e-12 14623.5 -1.09523e-11 1.02017e+06)
(3.23621e+06 540763 -2.67192e-12 1.22182e+06 -4.96689e-12 2.22679e+06)
(2.84139e+06 433221 2.01414e-12 874035 3.24263e-12 1.85585e+06)
(2.96117e+06 347121 -2.04219e-12 1.06345e+06 -3.37397e-12 2.0103e+06)
(2.70186e+06 278667 5.27815e-12 885351 7.31542e-12 1.79181e+06)
(2.57934e+06 224580 3.25305e-12 845504 4.73162e-12 1.71071e+06)
(2.38617e+06 181835 1.38265e-12 731655 1.31136e-12 1.55735e+06)
(2.24574e+06 148002 8.69933e-13 663901 1.0251e-12 1.45337e+06)
(2.10677e+06 121057 5.08567e-13 589724 7.07792e-14 1.3469e+06)
(1.99637e+06 99430.3 3.14789e-13 535851 8.14491e-13 1.26484e+06)
(1.89952e+06 81886.2 1.55479e-12 487616 1.87983e-12 1.19237e+06)
(1.82033e+06 67490.2 4.52298e-13 449772 1.57586e-13 1.13391e+06)
(1.75303e+06 55533.7 -6.84916e-13 417374 -9.55751e-13 1.08412e+06)
(1.69688e+06 45489.5 1.08574e-12 390523 1.03571e-12 1.04266e+06)
(1.64909e+06 36964.9 3.26409e-13 367220 4.79539e-13 1.00715e+06)
(1.60837e+06 29669.1 -3.18544e-13 346922 -3.7336e-13 976670)
(1.57321e+06 23385.8 2.66018e-14 328737 2.49332e-14 950021)
(1.54263e+06 17952.6 -3.26169e-13 312257 -3.21093e-13 926518)
(1.51579e+06 13246.3 -1.65054e-12 297078 -1.48928e-12 905526)
(1.49206e+06 9171.35 7.34086e-13 282977 4.95623e-13 886632)
(1.47096e+06 5652.26 2.7522e-13 269778 3.35551e-13 869498)
(1.4521e+06 2627.6 -1.01964e-12 257374 -6.83905e-13 853885)
(1.4352e+06 46.1901 -9.41543e-27 245691 -8.11854e-27 839606)
(1.42002e+06 -2135.66 5.35716e-13 234682 5.32579e-13 826522)
(1.40636e+06 -3956.06 8.34967e-13 224313 1.94942e-13 814522)
(1.39408e+06 -5448.82 -1.0437e-13 214561 1.38236e-13 803514)
(1.38303e+06 -6644.32 8.0951e-13 205408 6.67704e-13 793425)
(1.37311e+06 -7570.13 7.37698e-26 196838 3.90397e-26 784189)
(1.36421e+06 -8251.43 -1.39528e-12 188839 -4.57456e-13 775749)
(1.35625e+06 -8711.36 9.4296e-13 181396 -5.28576e-14 768053)
(1.34914e+06 -8971.19 -1.6289e-13 174496 1.97238e-13 761056)
(1.34281e+06 -9050.58 1.29814e-13 168125 3.10537e-13 754712)
(1.3372e+06 -8967.71 9.3419e-13 162272 3.29653e-13 748984)
(1.33223e+06 -8739.45 -8.25359e-13 156922 1.10744e-14 743834)
(1.32787e+06 -8381.44 7.36764e-13 152065 -3.51139e-13 739228)
(1.32406e+06 -7908.3 1.24709e-12 147688 3.23062e-13 735137)
(1.32075e+06 -7333.67 -1.24771e-12 143780 -2.86404e-13 731532)
(1.3179e+06 -6670.36 -3.12087e-13 140332 -6.26596e-14 728389)
(1.31549e+06 -5930.45 1.24896e-12 137335 2.15656e-13 725687)
(1.31348e+06 -5125.37 6.24763e-13 134781 9.06739e-14 723405)
(1.31184e+06 -4266.04 -3.12507e-13 132663 -3.69017e-14 721528)
(1.31055e+06 -3362.91 3.65571e-26 130976 7.38813e-27 720043)
(1.3096e+06 -2426.08 -3.12695e-13 129714 -2.03521e-14 718938)
(1.30898e+06 -1465.38 4.1854e-26 128875 3.21706e-27 718206)
(1.30866e+06 -490.428 6.25558e-13 128456 8.11556e-15 717841)
(1.30866e+06 489.258 -1.87667e-12 128456 2.43451e-14 717841)
(1.30898e+06 1464.21 -7.61073e-27 128875 6.8683e-27 718206)
(1.3096e+06 2424.91 1.25078e-12 129714 -8.14072e-14 718938)
(1.31055e+06 3361.73 -9.37838e-13 130976 8.57456e-14 720043)
(1.31184e+06 4264.86 6.25015e-13 132663 -7.3803e-14 721528)
(1.31348e+06 5124.18 -1.55902e-12 134781 2.08956e-13 723405)
(1.31549e+06 5929.25 7.64838e-26 137336 -6.19628e-27 725687)
(1.31791e+06 6669.15 2.18461e-12 140333 -4.38616e-13 728390)
(1.32075e+06 7332.45 -9.35786e-13 143780 2.14802e-13 731533)
(1.32406e+06 7907.06 3.11772e-13 147688 -8.07652e-14 735137)
(1.32787e+06 8380.19 2.32669e-13 152065 1.04532e-12 739229)
(1.33224e+06 8738.17 -2.31163e-26 156923 8.41502e-27 743834)
(1.3372e+06 8966.41 -1.24559e-12 162272 4.39537e-13 748985)
(1.34281e+06 9049.24 -9.3401e-13 168126 3.60693e-13 754713)
(1.34914e+06 8969.81 1.55664e-12 174496 -6.54749e-13 761056)
(1.35625e+06 8709.94 6.31383e-13 181396 -3.01813e-13 768054)
(1.36421e+06 8249.97 7.36244e-26 188839 -3.48819e-26 775749)
(1.37311e+06 7568.62 7.53117e-27 196839 -6.38818e-27 784189)
(1.38303e+06 6642.76 -3.12135e-13 205408 1.78205e-13 793425)
(1.39408e+06 5447.22 3.12641e-13 214560 -1.91291e-13 803513)
(1.40636e+06 3954.43 -3.01419e-13 224311 1.87187e-13 814520)
(1.42001e+06 2134.01 3.13682e-26 234680 -2.02735e-26 826520)
(1.4352e+06 -47.8479 8.47025e-27 245688 -6.90545e-27 839602)
(1.4521e+06 -2629.24 -9.50084e-13 257370 7.49769e-13 853879)
(1.47095e+06 -5653.85 6.36821e-13 269772 -5.32779e-13 869491)
(1.49205e+06 -9172.86 3.36098e-13 282970 -3.01871e-13 886624)
(1.51578e+06 -13247.6 -1.29228e-12 297069 1.20759e-12 905516)
(1.54262e+06 -17953.8 -9.29235e-27 312247 9.21853e-27 926506)
(1.57319e+06 -23386.8 9.89733e-13 328726 -1.02411e-12 950008)
(1.60836e+06 -29669.9 -1.33768e-12 346911 1.45142e-12 976658)
(1.64908e+06 -36965.4 -2.35918e-12 367210 2.68059e-12 1.00714e+06)
(1.69688e+06 -45489.8 8.62223e-12 390515 -8.86704e-12 1.04265e+06)
(1.75303e+06 -55533.8 -1.84056e-12 417370 1.93139e-12 1.08411e+06)
(1.82033e+06 -67490.2 2.67853e-12 449773 -1.16493e-12 1.13392e+06)
(1.89953e+06 -81886.2 7.70508e-12 487625 -7.49752e-12 1.19239e+06)
(1.9964e+06 -99430.5 -1.20851e-13 535870 -5.93366e-13 1.26487e+06)
(2.10681e+06 -121058 1.06964e-11 589755 -1.15843e-11 1.34694e+06)
(2.2458e+06 -148003 -2.19033e-12 663945 2.46814e-12 1.45342e+06)
(2.38624e+06 -181837 4.41864e-12 731712 -1.56753e-12 1.55742e+06)
(2.57942e+06 -224583 7.53787e-12 845570 -7.38076e-12 1.71078e+06)
(2.70194e+06 -278671 1.95382e-12 885425 -3.08584e-12 1.79189e+06)
(2.96125e+06 -347126 1.00246e-11 1.06352e+06 -1.22829e-11 2.01037e+06)
(2.84145e+06 -433227 -1.86853e-12 874103 2.46694e-12 1.85592e+06)
(3.23624e+06 -540770 6.29638e-12 1.22186e+06 -6.67092e-12 2.22682e+06)
(2.02777e+06 -672834 9.08253e-12 14660.9 -1.28364e-11 1.02019e+06)
(3.11006e+06 -831026 -2.78615e-12 1.16352e+06 5.608e-12 2.13466e+06)
(-2.17543e+06 -1.01436e+06 8.38901e-12 -3.933e+06 -1.99071e-11 -3.05116e+06)
(2.9576e+06 -1.2109e+06 3.60741e-13 1.49415e+06 -1.68318e-12 2.22365e+06)
(-1.63417e+07 -1.41904e+06 -1.72744e-12 -1.73146e+07 1.12993e-11 -1.68113e+07)
(9.87499e+06 -1.55314e+06 9.78473e-13 9.43173e+06 -1.21966e-11 9.64371e+06)
(1.8612e+07 1.41738e+06 3.02532e-13 1.8278e+07 4.6048e-12 1.84265e+07)
(-7.66974e+06 1.31371e+06 -7.23064e-13 -8.4512e+06 -5.1038e-12 -8.05241e+06)
(5.99413e+06 1.1694e+06 -1.34233e-12 4.80309e+06 -5.66731e-12 5.39321e+06)
(-813955 1.02757e+06 7.33803e-13 -2.28124e+06 1.94603e-12 -1.54605e+06)
(2.76861e+06 883052 1.32351e-12 1.08808e+06 3.18936e-12 1.92641e+06)
(1.07014e+06 748385 2.4609e-12 -729563 5.23217e-12 170117)
(1.96001e+06 626303 -7.08863e-12 102199 -1.08712e-11 1.03008e+06)
(1.51484e+06 520118 -2.21157e-12 -348196 -3.73458e-12 582739)
(1.7007e+06 429831 -5.52585e-12 -136149 -6.85641e-12 781492)
(1.55254e+06 354447 -7.37884e-12 -237450 -8.57613e-12 656889)
(1.55866e+06 292208 4.15061e-13 -174755 4.58465e-13 691261)
(1.48377e+06 241163 4.16442e-13 -189476 4.42561e-13 646498)
(1.44936e+06 199427 4.13074e-13 -164807 4.26927e-13 641635)
(1.39823e+06 165288 1.63832e-12 -160466 1.98702e-12 618265)
(1.36061e+06 137280 3.54254e-13 -147705 4.88777e-13 605845)
(1.32236e+06 114176 1.69225e-14 -141169 -3.37483e-13 590004)
(1.29079e+06 94987.6 1.14003e-12 -133585 1.05934e-12 578024)
(1.26214e+06 78924.8 3.03454e-26 -128397 3.5621e-26 566305)
(1.23792e+06 65370.2 1.43018e-12 -123616 1.61206e-12 556597)
(1.2169e+06 53844.3 9.84524e-13 -119936 1.05653e-12 547933)
(1.19915e+06 43977.3 3.12522e-13 -116725 3.47865e-13 540671)
(1.18409e+06 35484.6 3.78398e-14 -114049 2.4671e-15 534487)
(1.17151e+06 28146.5 7.94563e-13 -111665 1.04749e-12 529391)
(1.16103e+06 21792.1 -5.63657e-13 -109529 -6.72071e-13 525224)
(1.15241e+06 16287.3 -5.72189e-13 -107537 -7.01695e-13 521914)
(1.14539e+06 11525.1 1.9569e-13 -105649 4.12097e-13 519350)
(1.13976e+06 7418.58 1.50785e-12 -103824 8.66378e-13 517450)
(1.13533e+06 3895.86 2.31521e-13 -102042 3.27256e-13 516126)
(1.13193e+06 896.278 -1.74468e-12 -100290 -1.53344e-12 515302)
(1.1294e+06 -1632.31 -5.63253e-13 -98566.1 -5.6085e-13 514903)
(1.12763e+06 -3735.5 7.87259e-14 -96869.9 4.74093e-13 514866)
(1.1265e+06 -5453.72 2.96609e-13 -95206.5 -2.78483e-13 515130)
(1.1259e+06 -6823.2 5.43577e-13 -93582.6 1.4465e-12 515641)
(1.12574e+06 -7876.76 -1.98291e-15 -92005.8 -4.90165e-13 516349)
(1.12594e+06 -8644.29 -4.81297e-13 -90483.9 -9.91526e-13 517209)
(1.12642e+06 -9153.21 -3.54425e-13 -89024.7 3.99006e-13 518181)
(1.12714e+06 -9428.74 1.68866e-12 -87635.5 8.61446e-14 519230)
(1.12801e+06 -9494.19 -4.41666e-13 -86322.9 -4.31063e-13 520323)
(1.129e+06 -9371.17 -8.5515e-13 -85092.9 2.1515e-14 521431)
(1.13005e+06 -9079.78 5.37823e-13 -83950.7 -1.59071e-13 522528)
(1.13113e+06 -8638.77 1.27568e-13 -82900.6 1.52468e-12 523592)
(1.1322e+06 -8065.74 -6.46434e-13 -81946.6 -1.3742e-12 524603)
(1.13323e+06 -7377.2 -2.51329e-13 -81091.7 2.58583e-13 525543)
(1.13419e+06 -6588.78 3.82559e-13 -80338.7 3.75025e-13 526397)
(1.13505e+06 -5715.33 2.56505e-13 -79689.8 1.6063e-12 527152)
(1.1358e+06 -4771.01 2.09379e-13 -79146.5 1.60657e-12 527798)
(1.13642e+06 -3769.45 1.90035e-13 -78710.4 -1.27521e-12 528325)
(1.13689e+06 -2723.83 -2.06019e-13 -78382.5 1.5867e-12 528726)
(1.13721e+06 -1646.96 -3.08088e-13 -78163.4 3.09271e-13 528996)
(1.13738e+06 -551.458 2.77903e-14 -78053.8 1.92865e-12 529132)