/*--------------------------------*- C++ -*----------------------------------*\
| =========                 |                                                 |
| \\      /  F ield         | foam-extend: Open Source CFD                    |
|  \\    /   O peration     | Version:     4.1                                |
|   \\  /    A nd           | Web:         http://www.foam-extend.org         |
|    \\/     M anipulation  |                                                 |
\*---------------------------------------------------------------------------*/
FoamFile
{
    version     2.0;
    format      ascii;
    class       volScalarField;
    location    "1";
    object      sigmaHyd;
}
// * * * * * * * * * * * * * * * * * * * * * * * * * * * * * * * * * * * * * //

dimensions      [1 -1 -2 0 0 0 0];

internalField   nonuniform List<scalar> 
10000
(
-7.75748e+07
-1.76622e+07
-1.25075e+07
-1.19397e+06
2.18264e+06
4.36483e+06
4.87294e+06
4.89102e+06
4.55531e+06
4.14175e+06
3.70641e+06
3.31262e+06
2.96799e+06
2.67891e+06
2.4382e+06
2.23926e+06
2.07346e+06
1.93371e+06
1.81367e+06
1.70845e+06
1.61422e+06
1.52821e+06
1.4484e+06
1.37342e+06
1.30234e+06
1.23458e+06
1.16978e+06
1.10775e+06
1.0484e+06
991696
937652
886287
837627
791698
748518
708101
670451
635569
603447
574076
547442
523531
502326
483812
467975
454799
444274
436389
431137
428512
428512
431137
436389
444274
454800
467975
483813
502327
523532
547444
574078
603449
635571
670453
708102
748519
791698
837626
886283
937645
991685
1.04838e+06
1.10772e+06
1.16975e+06
1.23454e+06
1.3023e+06
1.37337e+06
1.44835e+06
1.52815e+06
1.61417e+06
1.7084e+06
1.81363e+06
1.9337e+06
2.07348e+06
2.23932e+06
2.43831e+06
2.67909e+06
2.96823e+06
3.31292e+06
3.70676e+06
4.14213e+06
4.55567e+06
4.89132e+06
4.8731e+06
4.3648e+06
2.18238e+06
-1.19448e+06
-1.25081e+07
-1.76628e+07
-7.75746e+07
2.25878e+07
3.271e+07
-399052
616809
-5.46624e+06
-4.8775e+06
-5.54284e+06
-4.87261e+06
-4.51629e+06
-3.95402e+06
-3.5353e+06
-3.13911e+06
-2.83126e+06
-2.57347e+06
-2.37068e+06
-2.20583e+06
-2.07347e+06
-1.96453e+06
-1.87394e+06
-1.79676e+06
-1.72981e+06
-1.6705e+06
-1.6171e+06
-1.56832e+06
-1.5233e+06
-1.48145e+06
-1.44235e+06
-1.40573e+06
-1.37139e+06
-1.33921e+06
-1.30907e+06
-1.2809e+06
-1.25462e+06
-1.23019e+06
-1.20752e+06
-1.18659e+06
-1.16731e+06
-1.14966e+06
-1.13356e+06
-1.11899e+06
-1.10589e+06
-1.09422e+06
-1.08394e+06
-1.07503e+06
-1.06744e+06
-1.06116e+06
-1.05616e+06
-1.05242e+06
-1.04994e+06
-1.0487e+06
-1.0487e+06
-1.04994e+06
-1.05242e+06
-1.05616e+06
-1.06116e+06
-1.06744e+06
-1.07503e+06
-1.08394e+06
-1.09422e+06
-1.10589e+06
-1.11899e+06
-1.13357e+06
-1.14966e+06
-1.16732e+06
-1.18659e+06
-1.20753e+06
-1.23019e+06
-1.25462e+06
-1.2809e+06
-1.30907e+06
-1.3392e+06
-1.37139e+06
-1.40572e+06
-1.44233e+06
-1.48143e+06
-1.52328e+06
-1.56828e+06
-1.61706e+06
-1.67046e+06
-1.72977e+06
-1.79673e+06
-1.87391e+06
-1.96451e+06
-2.07347e+06
-2.20586e+06
-2.37075e+06
-2.57357e+06
-2.83142e+06
-3.13931e+06
-3.53554e+06
-3.95428e+06
-4.51655e+06
-4.87283e+06
-5.54298e+06
-4.87752e+06
-5.46606e+06
617095
-398523
3.27101e+07
2.2588e+07
-3.16159e+07
7.63293e+06
-8.45015e+06
921939
-1.93863e+06
326817
-181927
335693
204699
285702
216466
197650
148547
116139
81129.1
53847.2
28866.6
7898.56
-11000
-27906.6
-43654.9
-58511.7
-72839.9
-86795.3
-100508
-114022
-127355
-140485
-153381
-165998
-178288
-190201
-201692
-212717
-223238
-233221
-242636
-251457
-259663
-267235
-274158
-280418
-286005
-290911
-295127
-298649
-301471
-303591
-305006
-305713
-305713
-305006
-303591
-301471
-298649
-295127
-290910
-286005
-280418
-274157
-267235
-259663
-251457
-242636
-233221
-223239
-212718
-201693
-190202
-178290
-166001
-153386
-140491
-127361
-114031
-100517
-86805.7
-72850.9
-58522.6
-43664.8
-27914.2
-11003.9
7900.09
28875.4
53865.1
81157.6
116178
148598
197710
216532
285767
204758
335729
-181910
326774
-1.93867e+06
921754
-8.45016e+06
7.63245e+06
-3.16154e+07
-9.6507e+06
1.68228e+07
-2.22534e+06
3.05322e+06
-2.13614e+06
-1.02085e+06
-2.22827e+06
-1.85709e+06
-2.01164e+06
-1.79301e+06
-1.71185e+06
-1.55839e+06
-1.45434e+06
-1.3478e+06
-1.26569e+06
-1.19317e+06
-1.13467e+06
-1.08484e+06
-1.04336e+06
-1.00782e+06
-977322
-950655
-927136
-906131
-887224
-870078
-854455
-840166
-827074
-815065
-804051
-793954
-784712
-776267
-768566
-761564
-755216
-749484
-744330
-739721
-735627
-732020
-728876
-726171
-723888
-722010
-720523
-719418
-718685
-718320
-718320
-718685
-719418
-720524
-722010
-723888
-726171
-728876
-732021
-735628
-739722
-744331
-749484
-755217
-761564
-768567
-776267
-784712
-793954
-804050
-815064
-827071
-840162
-854449
-870071
-887216
-906120
-927124
-950642
-977310
-1.00781e+06
-1.04335e+06
-1.08484e+06
-1.13467e+06
-1.19318e+06
-1.26571e+06
-1.34784e+06
-1.45439e+06
-1.55846e+06
-1.71193e+06
-1.79309e+06
-2.01171e+06
-1.85716e+06
-2.22831e+06
-1.02087e+06
-2.13608e+06
3.0532e+06
-2.22514e+06
1.68225e+07
-9.65014e+06
-1.84388e+07
8.05779e+06
-5.39681e+06
1.54708e+06
-1.9277e+06
-170230
-1.03076e+06
-583128
-782014
-657327
-691722
-646930
-642064
-618678
-606250
-590398
-578409
-566683
-556968
-548299
-541032
-534844
-529744
-525575
-522262
-519697
-517796
-516471
-515645
-515247
-515210
-515474
-515985
-516693
-517554
-518527
-519577
-520670
-521779
-522877
-523942
-524953
-525894
-526748
-527504
-528150
-528677
-529078
-529349
-529485
-529485
-529349
-529079
-528677
-528150
-527504
-526748
-525894
-524953
-523942
-522877
-521779
-520670
-519577
-518527
-517554
-516693
-515985
-515475
-515211
-515248
-515646
-516472
-517797
-519698
-522263
-525576
-529746
-534845
-541032
-548299
-556968
-566682
-578408
-590395
-606246
-618674
-642059
-646926
-691719
-657327
-782014
-583139
-1.03077e+06
-170269
-1.9277e+06
1.54696e+06
-5.39672e+06
8.0574e+06
-1.84383e+07
-1.28517e+07
9.23508e+06
-3.35122e+06
2.06312e+06
-1.60718e+06
-346706
-1.36579e+06
-1.04902e+06
-1.28753e+06
-1.17003e+06
-1.18869e+06
-1.11726e+06
-1.08306e+06
-1.03e+06
-990466
-950104
-916671
-886083
-859846
-836524
-816152
-798082
-782090
-767825
-755079
-743641
-733358
-724097
-715747
-708218
-701429
-695313
-689809
-684864
-680430
-676463
-672923
-669776
-666989
-664532
-662379
-660506
-658893
-657521
-656374
-655438
-654703
-654160
-653801
-653623
-653623
-653801
-654160
-654703
-655438
-656374
-657521
-658893
-660506
-662379
-664532
-666989
-669776
-672924
-676463
-680430
-684864
-689809
-695313
-701429
-708217
-715746
-724095
-733356
-743638
-755076
-767821
-782086
-798078
-816148
-836521
-859844
-886084
-916674
-950111
-990477
-1.03002e+06
-1.08308e+06
-1.11729e+06
-1.18871e+06
-1.17007e+06
-1.28756e+06
-1.04905e+06
-1.3658e+06
-346736
-1.60716e+06
2.06305e+06
-3.3511e+06
9.2348e+06
-1.28512e+07
-1.35033e+07
6.00975e+06
-4.15527e+06
1.11061e+06
-1.71986e+06
-351651
-1.13169e+06
-780033
-982903
-881635
-920208
-877489
-870053
-841786
-823330
-800593
-781604
-762790
-746185
-730808
-717096
-704707
-693659
-683778
-674988
-667169
-660233
-654089
-648658
-643867
-639650
-635948
-632707
-629878
-627415
-625280
-623436
-621849
-620489
-619331
-618351
-617526
-616838
-616271
-615810
-615444
-615163
-614959
-614826
-614761
-614761
-614826
-614959
-615163
-615444
-615810
-616271
-616838
-617526
-618351
-619332
-620490
-621849
-623436
-625280
-627416
-629878
-632707
-635948
-639650
-643867
-648658
-654089
-660233
-667169
-674988
-683778
-693659
-704706
-717096
-730808
-746185
-762791
-781605
-800596
-823333
-841790
-870059
-877495
-920215
-881644
-982911
-780048
-1.1317e+06
-351678
-1.71985e+06
1.11054e+06
-4.15519e+06
6.00951e+06
-1.3503e+07
-1.12878e+07
5.47442e+06
-3.45444e+06
1.00121e+06
-1.57453e+06
-443172
-1.18683e+06
-902086
-1.10231e+06
-1.01639e+06
-1.05254e+06
-1.00967e+06
-997771
-965294
-941863
-914402
-890804
-867685
-847038
-827885
-810628
-794896
-780684
-767793
-756132
-745567
-736005
-727348
-719515
-712432
-706032
-700257
-695052
-690369
-686164
-682398
-679033
-676037
-673380
-671035
-668977
-667185
-665639
-664323
-663221
-662322
-661615
-661091
-660746
-660574
-660574
-660746
-661092
-661615
-662322
-663221
-664323
-665639
-667185
-668977
-671035
-673380
-676037
-679033
-682398
-686164
-690369
-695052
-700256
-706032
-712431
-719515
-727347
-736004
-745566
-756130
-767792
-780682
-794895
-810626
-827884
-847038
-867686
-890807
-914407
-941870
-965303
-997781
-1.00968e+06
-1.05255e+06
-1.0164e+06
-1.10232e+06
-902101
-1.18683e+06
-443192
-1.57451e+06
1.00116e+06
-3.45437e+06
5.47426e+06
-1.12875e+07
-1.04922e+07
3.97561e+06
-3.52808e+06
460915
-1.64551e+06
-573694
-1.16767e+06
-883466
-1.04441e+06
-961470
-994148
-958609
-952440
-927482
-910352
-888703
-869849
-850677
-833185
-816567
-801328
-787215
-774308
-762485
-751708
-741888
-732963
-724857
-717509
-710854
-704837
-699404
-694507
-690102
-686147
-682605
-679442
-676627
-674130
-671927
-669995
-668313
-666862
-665627
-664593
-663750
-663086
-662595
-662271
-662110
-662110
-662271
-662595
-663086
-663750
-664593
-665627
-666862
-668313
-669995
-671927
-674130
-676627
-679442
-682605
-686147
-690102
-694507
-699404
-704837
-710854
-717508
-724857
-732962
-741888
-751707
-762484
-774308
-787215
-801328
-816567
-833186
-850679
-869850
-888706
-910355
-927486
-952445
-958615
-994154
-961478
-1.04442e+06
-883475
-1.16768e+06
-573707
-1.6455e+06
460884
-3.52803e+06
3.97552e+06
-1.04921e+07
-9.17943e+06
3.25911e+06
-3.20872e+06
227031
-1.60111e+06
-674435
-1.19477e+06
-946744
-1.0883e+06
-1.0138e+06
-1.04127e+06
-1.00743e+06
-999680
-974780
-956890
-934812
-915279
-895450
-877190
-859766
-843661
-828648
-814809
-802037
-790300
-779521
-769642
-760597
-752327
-744776
-737890
-731619
-725919
-720747
-716065
-711836
-708028
-704611
-701556
-698840
-696440
-694336
-692510
-690945
-689629
-688550
-687698
-687066
-686648
-686439
-686439
-686648
-687066
-687698
-688550
-689629
-690945
-692510
-694336
-696440
-698840
-701556
-704611
-708028
-711836
-716065
-720747
-725919
-731619
-737889
-744775
-752327
-760597
-769642
-779520
-790300
-802036
-814809
-828647
-843661
-859766
-877191
-895451
-915281
-934815
-956893
-974785
-999686
-1.00744e+06
-1.04128e+06
-1.0138e+06
-1.08831e+06
-946750
-1.19477e+06
-674441
-1.6011e+06
227019
-3.20868e+06
3.25907e+06
-9.17932e+06
-8.29305e+06
2.41099e+06
-3.10182e+06
-95973.7
-1.63025e+06
-793457
-1.21883e+06
-984422
-1.09608e+06
-1.02312e+06
-1.04295e+06
-1.01055e+06
-1.00241e+06
-979523
-963107
-942905
-924889
-906445
-889275
-872727
-857274
-842737
-829223
-816656
-805029
-794284
-784383
-775271
-766902
-759227
-752200
-745777
-739918
-734583
-729736
-725345
-721378
-717808
-714608
-711754
-709226
-707003
-705070
-703411
-702012
-700864
-699956
-699281
-698835
-698612
-698612
-698835
-699281
-699956
-700864
-702012
-703411
-705070
-707003
-709226
-711754
-714608
-717808
-721378
-725345
-729736
-734583
-739918
-745777
-752200
-759226
-766902
-775270
-784382
-794284
-805028
-816655
-829223
-842737
-857274
-872727
-889276
-906446
-924891
-942907
-963110
-979526
-1.00242e+06
-1.01055e+06
-1.04296e+06
-1.02313e+06
-1.09609e+06
-984425
-1.21883e+06
-793458
-1.63024e+06
-95973.6
-3.1018e+06
2.41099e+06
-8.293e+06
-7.39627e+06
1.84695e+06
-2.90706e+06
-298642
-1.61811e+06
-883611
-1.2457e+06
-1.03488e+06
-1.12694e+06
-1.05841e+06
-1.07202e+06
-1.04019e+06
-1.03019e+06
-1.00738e+06
-990516
-970383
-952285
-933849
-916598
-899936
-884298
-869522
-855712
-842805
-830799
-819647
-809316
-799761
-790941
-782813
-775335
-768469
-762175
-756420
-751168
-746390
-742056
-738139
-734615
-731462
-728658
-726186
-724030
-722174
-720606
-719316
-718294
-717534
-717031
-716780
-716780
-717031
-717534
-718294
-719316
-720606
-722174
-724030
-726186
-728658
-731462
-734615
-738139
-742056
-746390
-751168
-756419
-762175
-768468
-775335
-782813
-790941
-799761
-809316
-819647
-830799
-842804
-855712
-869522
-884298
-899937
-916598
-933850
-952287
-970384
-990519
-1.00738e+06
-1.03019e+06
-1.04019e+06
-1.07202e+06
-1.05841e+06
-1.12694e+06
-1.03489e+06
-1.24569e+06
-883607
-1.61811e+06
-298631
-2.90705e+06
1.84699e+06
-7.39628e+06
-6.69702e+06
1.3297e+06
-2.781e+06
-497992
-1.62699e+06
-971607
-1.27328e+06
-1.07815e+06
-1.14995e+06
-1.08327e+06
-1.09021e+06
-1.05836e+06
-1.04658e+06
-1.02401e+06
-1.00704e+06
-987362
-969612
-951614
-934705
-918337
-902900
-888252
-874494
-861575
-849501
-838236
-827755
-818022
-809001
-800657
-792952
-785852
-779323
-773333
-767850
-762847
-758295
-754171
-750450
-747113
-744139
-741511
-739214
-737234
-735559
-734178
-733084
-732269
-731729
-731459
-731459
-731729
-732269
-733084
-734178
-735559
-737234
-739214
-741511
-744139
-747113
-750450
-754171
-758295
-762847
-767850
-773333
-779323
-785852
-792952
-800656
-809001
-818022
-827755
-838236
-849501
-861574
-874494
-888252
-902900
-918337
-934705
-951615
-969613
-987363
-1.00704e+06
-1.02401e+06
-1.04658e+06
-1.05837e+06
-1.09021e+06
-1.08327e+06
-1.14995e+06
-1.07815e+06
-1.27328e+06
-971600
-1.62699e+06
-497974
-2.781e+06
1.32976e+06
-6.69706e+06
-6.08357e+06
948445
-2.6468e+06
-640687
-1.62211e+06
-1.04007e+06
-1.29726e+06
-1.11937e+06
-1.17659e+06
-1.1129e+06
-1.1147e+06
-1.08291e+06
-1.06931e+06
-1.04653e+06
-1.02899e+06
-1.00925e+06
-991373
-973383
-956451
-940069
-924579
-909849
-895969
-882893
-870629
-859146
-848424
-838431
-829137
-820509
-812517
-805127
-798310
-792036
-786277
-781006
-776198
-771830
-767880
-764328
-761157
-758348
-755889
-753765
-751966
-750482
-749304
-748426
-747843
-747553
-747553
-747843
-748426
-749304
-750482
-751966
-753765
-755889
-758348
-761156
-764328
-767880
-771830
-776198
-781006
-786277
-792036
-798310
-805127
-812516
-820509
-829136
-838430
-848424
-859146
-870629
-882892
-895968
-909849
-924579
-940069
-956451
-973384
-991374
-1.00925e+06
-1.02899e+06
-1.04653e+06
-1.06931e+06
-1.08291e+06
-1.1147e+06
-1.1129e+06
-1.17659e+06
-1.11936e+06
-1.29726e+06
-1.04006e+06
-1.62211e+06
-640664
-2.6468e+06
948512
-6.08364e+06
-5.5934e+06
633119
-2.54346e+06
-762822
-1.6226e+06
-1.10015e+06
-1.31979e+06
-1.1556e+06
-1.20014e+06
-1.13859e+06
-1.13579e+06
-1.10389e+06
-1.08865e+06
-1.06566e+06
-1.04764e+06
-1.02789e+06
-1.00996e+06
-992047
-975173
-958862
-943409
-928690
-914783
-901646
-889289
-877684
-866814
-856652
-847173
-838348
-830149
-822548
-815516
-809028
-803058
-797580
-792572
-788013
-783881
-780159
-776829
-773876
-771286
-769047
-767147
-765579
-764333
-763403
-762787
-762479
-762479
-762787
-763403
-764333
-765579
-767147
-769047
-771286
-773876
-776829
-780159
-783881
-788013
-792572
-797580
-803058
-809028
-815516
-822547
-830149
-838348
-847173
-856652
-866814
-877684
-889289
-901646
-914783
-928690
-943409
-958862
-975173
-992047
-1.00996e+06
-1.02789e+06
-1.04764e+06
-1.06566e+06
-1.08865e+06
-1.10389e+06
-1.13579e+06
-1.13859e+06
-1.20013e+06
-1.15559e+06
-1.31978e+06
-1.10014e+06
-1.6226e+06
-762797
-2.54347e+06
633191
-5.59348e+06
-5.18844e+06
395218
-2.45021e+06
-853824
-1.61878e+06
-1.14734e+06
-1.33866e+06
-1.18733e+06
-1.22259e+06
-1.16355e+06
-1.15734e+06
-1.12553e+06
-1.10895e+06
-1.08573e+06
-1.06721e+06
-1.04732e+06
-1.02923e+06
-1.01128e+06
-994353
-978019
-962527
-947759
-933779
-920549
-908074
-896330
-885303
-874967
-865301
-856278
-847875
-840065
-832823
-826125
-819947
-814267
-809064
-804317
-800008
-796119
-792635
-789540
-786822
-784469
-782471
-780820
-779507
-778528
-777877
-777553
-777553
-777877
-778528
-779507
-780820
-782471
-784469
-786822
-789540
-792635
-796119
-800008
-804317
-809064
-814267
-819947
-826125
-832823
-840064
-847875
-856278
-865301
-874967
-885303
-896330
-908074
-920549
-933779
-947758
-962527
-978019
-994353
-1.01128e+06
-1.02923e+06
-1.04732e+06
-1.06721e+06
-1.08573e+06
-1.10895e+06
-1.12553e+06
-1.15734e+06
-1.16355e+06
-1.22259e+06
-1.18733e+06
-1.33865e+06
-1.14733e+06
-1.61878e+06
-853799
-2.45022e+06
395291
-5.18853e+06
-4.86698e+06
208436
-2.37554e+06
-926590
-1.61641e+06
-1.18646e+06
-1.35533e+06
-1.21473e+06
-1.24265e+06
-1.18582e+06
-1.1769e+06
-1.14525e+06
-1.12759e+06
-1.10422e+06
-1.08529e+06
-1.06531e+06
-1.04709e+06
-1.02911e+06
-1.01217e+06
-995832
-980327
-965536
-951515
-938225
-925670
-913826
-902680
-892210
-882397
-873217
-864647
-856666
-849250
-842376
-836025
-830174
-824804
-819897
-815435
-811403
-807784
-804566
-801737
-799285
-797202
-795478
-794107
-793083
-792403
-792064
-792064
-792403
-793083
-794107
-795478
-797202
-799285
-801737
-804566
-807784
-811403
-815435
-819897
-824804
-830174
-836025
-842376
-849249
-856666
-864647
-873216
-882397
-892210
-902680
-913825
-925669
-938225
-951515
-965536
-980326
-995832
-1.01217e+06
-1.02911e+06
-1.04709e+06
-1.06531e+06
-1.08529e+06
-1.10422e+06
-1.12759e+06
-1.14525e+06
-1.1769e+06
-1.18581e+06
-1.24265e+06
-1.21473e+06
-1.35533e+06
-1.18645e+06
-1.61641e+06
-926565
-2.37555e+06
208506
-4.86707e+06
-4.61015e+06
68049.7
-2.3127e+06
-981103
-1.61301e+06
-1.21719e+06
-1.36926e+06
-1.23808e+06
-1.26075e+06
-1.20615e+06
-1.19536e+06
-1.16403e+06
-1.14562e+06
-1.12218e+06
-1.10294e+06
-1.08288e+06
-1.06455e+06
-1.04654e+06
-1.02955e+06
-1.0132e+06
-997663
-982841
-968774
-955423
-942790
-930853
-919599
-909008
-899061
-889739
-881019
-872882
-865308
-858275
-851764
-845756
-840234
-835180
-830578
-826413
-822670
-819339
-816407
-813863
-811700
-809909
-808484
-807419
-806712
-806359
-806359
-806712
-807419
-808484
-809909
-811700
-813863
-816407
-819339
-822670
-826412
-830578
-835180
-840234
-845756
-851764
-858275
-865307
-872882
-881019
-889738
-899061
-909008
-919599
-930853
-942790
-955422
-968773
-982840
-997663
-1.01319e+06
-1.02955e+06
-1.04654e+06
-1.06455e+06
-1.08288e+06
-1.10294e+06
-1.12218e+06
-1.14562e+06
-1.16403e+06
-1.19536e+06
-1.20615e+06
-1.26074e+06
-1.23807e+06
-1.36925e+06
-1.21718e+06
-1.613e+06
-981080
-2.31272e+06
68114.6
-4.61023e+06
-4.40914e+06
-38690.7
-2.26246e+06
-1.02307e+06
-1.61031e+06
-1.24193e+06
-1.38125e+06
-1.25796e+06
-1.2768e+06
-1.22426e+06
-1.21217e+06
-1.18125e+06
-1.16234e+06
-1.13893e+06
-1.11949e+06
-1.09941e+06
-1.08101e+06
-1.063e+06
-1.046e+06
-1.02965e+06
-1.0141e+06
-999266
-985170
-971778
-959089
-947081
-935742
-925053
-914997
-905556
-896711
-888443
-880733
-873563
-866915
-860771
-855116
-849933
-845207
-840925
-837074
-833642
-830618
-827993
-825758
-823907
-822434
-821333
-820601
-820235
-820235
-820601
-821333
-822434
-823907
-825758
-827993
-830618
-833642
-837074
-840925
-845207
-849933
-855116
-860771
-866915
-873563
-880733
-888442
-896711
-905556
-914997
-925052
-935741
-947080
-959088
-971778
-985170
-999266
-1.0141e+06
-1.02964e+06
-1.046e+06
-1.063e+06
-1.08101e+06
-1.09941e+06
-1.11949e+06
-1.13893e+06
-1.16234e+06
-1.18125e+06
-1.21217e+06
-1.22426e+06
-1.27679e+06
-1.25796e+06
-1.38124e+06
-1.24193e+06
-1.61031e+06
-1.02304e+06
-2.26247e+06
-38632.2
-4.40922e+06
-4.2522e+06
-117975
-2.2218e+06
-1.05435e+06
-1.60773e+06
-1.2614e+06
-1.39136e+06
-1.2748e+06
-1.29103e+06
-1.24046e+06
-1.2276e+06
-1.19721e+06
-1.17803e+06
-1.15475e+06
-1.13522e+06
-1.11518e+06
-1.09676e+06
-1.07877e+06
-1.06177e+06
-1.04543e+06
-1.02988e+06
-1.01504e+06
-1.00093e+06
-987503
-974769
-962703
-951293
-940522
-930373
-920830
-911876
-903493
-895665
-888374
-881605
-875341
-869567
-864268
-859432
-855045
-851095
-847572
-844465
-841766
-839468
-837562
-836045
-834911
-834156
-833780
-833780
-834156
-834911
-836045
-837562
-839468
-841766
-844465
-847572
-851095
-855045
-859432
-864268
-869566
-875340
-881605
-888374
-895665
-903493
-911876
-920830
-930373
-940521
-951293
-962703
-974769
-987503
-1.00093e+06
-1.01504e+06
-1.02988e+06
-1.04543e+06
-1.06177e+06
-1.07877e+06
-1.09676e+06
-1.11518e+06
-1.13522e+06
-1.15475e+06
-1.17803e+06
-1.19721e+06
-1.22759e+06
-1.24046e+06
-1.29103e+06
-1.27479e+06
-1.39136e+06
-1.2614e+06
-1.60773e+06
-1.05433e+06
-2.22181e+06
-117923
-4.25228e+06
-4.13126e+06
-176958
-2.18977e+06
-1.07795e+06
-1.60578e+06
-1.27696e+06
-1.40009e+06
-1.28912e+06
-1.30364e+06
-1.25487e+06
-1.24161e+06
-1.21181e+06
-1.19257e+06
-1.16948e+06
-1.14997e+06
-1.13001e+06
-1.11163e+06
-1.09369e+06
-1.07673e+06
-1.06042e+06
-1.0449e+06
-1.03006e+06
-1.01595e+06
-1.00251e+06
-989745
-977638
-966175
-955338
-945115
-935489
-926444
-917964
-910035
-902641
-895766
-889397
-883520
-878120
-873187
-868707
-864670
-861066
-857886
-855121
-852765
-850811
-849254
-848090
-847316
-846930
-846930
-847316
-848090
-849254
-850811
-852765
-855121
-857886
-861066
-864670
-868707
-873186
-878120
-883519
-889397
-895766
-902640
-910035
-917964
-926443
-935488
-945115
-955338
-966174
-977638
-989745
-1.00251e+06
-1.01595e+06
-1.03006e+06
-1.0449e+06
-1.06042e+06
-1.07673e+06
-1.09369e+06
-1.11163e+06
-1.13001e+06
-1.14997e+06
-1.16948e+06
-1.19256e+06
-1.21181e+06
-1.24161e+06
-1.25487e+06
-1.30364e+06
-1.28911e+06
-1.40009e+06
-1.27695e+06
-1.60579e+06
-1.07794e+06
-2.18979e+06
-176913
-4.13133e+06
-4.03856e+06
-220287
-2.16462e+06
-1.09553e+06
-1.60433e+06
-1.28934e+06
-1.40762e+06
-1.30133e+06
-1.31483e+06
-1.26773e+06
-1.25438e+06
-1.22521e+06
-1.20605e+06
-1.18324e+06
-1.16382e+06
-1.14401e+06
-1.12571e+06
-1.10785e+06
-1.09095e+06
-1.0747e+06
-1.05921e+06
-1.0444e+06
-1.0303e+06
-1.01686e+06
-1.00408e+06
-991947
-980445
-969558
-959275
-949580
-940459
-931898
-923883
-916399
-909434
-902974
-897005
-891517
-886498
-881936
-877821
-874146
-870900
-868077
-865669
-863672
-862080
-860889
-860097
-859701
-859701
-860097
-860889
-862080
-863672
-865669
-868077
-870900
-874146
-877821
-881936
-886497
-891517
-897005
-902973
-909434
-916399
-923883
-931898
-940459
-949579
-959275
-969558
-980444
-991947
-1.00408e+06
-1.01686e+06
-1.0303e+06
-1.0444e+06
-1.05921e+06
-1.07469e+06
-1.09095e+06
-1.10785e+06
-1.12571e+06
-1.14401e+06
-1.16382e+06
-1.18324e+06
-1.20605e+06
-1.22521e+06
-1.25437e+06
-1.26773e+06
-1.31483e+06
-1.30133e+06
-1.40762e+06
-1.28933e+06
-1.60433e+06
-1.09552e+06
-2.16464e+06
-220249
-4.03862e+06
-3.96821e+06
-252137
-2.14526e+06
-1.10878e+06
-1.60349e+06
-1.29936e+06
-1.41426e+06
-1.31184e+06
-1.32481e+06
-1.27922e+06
-1.26599e+06
-1.23747e+06
-1.21851e+06
-1.19603e+06
-1.17677e+06
-1.15715e+06
-1.13897e+06
-1.12123e+06
-1.10442e+06
-1.08824e+06
-1.07281e+06
-1.05805e+06
-1.04397e+06
-1.03054e+06
-1.01776e+06
-1.00562e+06
-994090
-983167
-972838
-963089
-953907
-945279
-937192
-929633
-922590
-916051
-910005
-904439
-899345
-894711
-890529
-886790
-883486
-880611
-878158
-876122
-874499
-873284
-872476
-872072
-872072
-872476
-873284
-874499
-876122
-878158
-880611
-883486
-886790
-890529
-894711
-899345
-904439
-910005
-916051
-922590
-929633
-937192
-945279
-953907
-963089
-972838
-983167
-994089
-1.00562e+06
-1.01776e+06
-1.03054e+06
-1.04397e+06
-1.05805e+06
-1.07281e+06
-1.08824e+06
-1.10442e+06
-1.12123e+06
-1.13897e+06
-1.15715e+06
-1.17677e+06
-1.19602e+06
-1.21851e+06
-1.23747e+06
-1.26598e+06
-1.27922e+06
-1.32481e+06
-1.31184e+06
-1.41426e+06
-1.29936e+06
-1.60349e+06
-1.10877e+06
-2.14527e+06
-252105
-3.96826e+06
-3.91517e+06
-275474
-2.13054e+06
-1.11881e+06
-1.60319e+06
-1.30757e+06
-1.42018e+06
-1.32096e+06
-1.33377e+06
-1.28954e+06
-1.27657e+06
-1.24872e+06
-1.23004e+06
-1.20791e+06
-1.18888e+06
-1.16948e+06
-1.15146e+06
-1.13387e+06
-1.11717e+06
-1.10108e+06
-1.08573e+06
-1.07102e+06
-1.05699e+06
-1.04359e+06
-1.03082e+06
-1.01867e+06
-1.00713e+06
-996188
-985826
-976036
-966805
-958122
-949976
-942354
-935246
-928640
-922526
-916894
-911734
-907037
-902796
-899001
-895646
-892725
-890232
-888162
-886511
-885275
-884453
-884042
-884042
-884453
-885275
-886511
-888162
-890232
-892725
-895646
-899001
-902796
-907037
-911734
-916894
-922526
-928640
-935246
-942354
-949976
-958122
-966805
-976035
-985826
-996187
-1.00713e+06
-1.01867e+06
-1.03082e+06
-1.04359e+06
-1.05698e+06
-1.07102e+06
-1.08573e+06
-1.10108e+06
-1.11717e+06
-1.13387e+06
-1.15146e+06
-1.16948e+06
-1.18888e+06
-1.20791e+06
-1.23004e+06
-1.24872e+06
-1.27657e+06
-1.28954e+06
-1.33377e+06
-1.32096e+06
-1.42018e+06
-1.30757e+06
-1.60319e+06
-1.1188e+06
-2.13055e+06
-275449
-3.91521e+06
-3.87552e+06
-292691
-2.11958e+06
-1.12656e+06
-1.60344e+06
-1.31445e+06
-1.42555e+06
-1.32898e+06
-1.34186e+06
-1.29885e+06
-1.28625e+06
-1.25904e+06
-1.2407e+06
-1.21896e+06
-1.20019e+06
-1.18103e+06
-1.1632e+06
-1.14577e+06
-1.12921e+06
-1.11323e+06
-1.09797e+06
-1.08334e+06
-1.06935e+06
-1.05599e+06
-1.04325e+06
-1.03112e+06
-1.01958e+06
-1.00862e+06
-998240
-988420
-979153
-970428
-962233
-954560
-947397
-940734
-934563
-928874
-923658
-918907
-914614
-910771
-907371
-904410
-901881
-899781
-898105
-896851
-896016
-895599
-895599
-896016
-896851
-898105
-899781
-901881
-904410
-907371
-910770
-914614
-918907
-923658
-928874
-934563
-940734
-947397
-954560
-962233
-970428
-979153
-988420
-998240
-1.00862e+06
-1.01958e+06
-1.03112e+06
-1.04325e+06
-1.05599e+06
-1.06935e+06
-1.08334e+06
-1.09797e+06
-1.11323e+06
-1.1292e+06
-1.14577e+06
-1.1632e+06
-1.18103e+06
-1.20019e+06
-1.21896e+06
-1.2407e+06
-1.25904e+06
-1.28625e+06
-1.29885e+06
-1.34186e+06
-1.32898e+06
-1.42555e+06
-1.31445e+06
-1.60344e+06
-1.12655e+06
-2.11959e+06
-292671
-3.87556e+06
-3.84613e+06
-305518
-2.11161e+06
-1.13271e+06
-1.60417e+06
-1.32034e+06
-1.43051e+06
-1.33612e+06
-1.34922e+06
-1.3073e+06
-1.29512e+06
-1.26854e+06
-1.25057e+06
-1.22923e+06
-1.21074e+06
-1.19185e+06
-1.17423e+06
-1.15698e+06
-1.14057e+06
-1.12472e+06
-1.10956e+06
-1.09501e+06
-1.0811e+06
-1.06779e+06
-1.05508e+06
-1.04297e+06
-1.03144e+06
-1.02048e+06
-1.01009e+06
-1.00025e+06
-990961
-982203
-973971
-966256
-959048
-952339
-946119
-940382
-935118
-930320
-925982
-922097
-918658
-915662
-913102
-910976
-909278
-908008
-907162
-906740
-906740
-907162
-908008
-909278
-910976
-913102
-915662
-918658
-922097
-925982
-930320
-935118
-940381
-946119
-952338
-959048
-966256
-973971
-982203
-990961
-1.00025e+06
-1.01009e+06
-1.02048e+06
-1.03144e+06
-1.04297e+06
-1.05508e+06
-1.06779e+06
-1.0811e+06
-1.09501e+06
-1.10956e+06
-1.12472e+06
-1.14057e+06
-1.15698e+06
-1.17423e+06
-1.19185e+06
-1.21074e+06
-1.22922e+06
-1.25057e+06
-1.26853e+06
-1.29512e+06
-1.3073e+06
-1.34922e+06
-1.33612e+06
-1.43051e+06
-1.32033e+06
-1.60417e+06
-1.1327e+06
-2.11162e+06
-305502
-3.84616e+06
-3.82456e+06
-315266
-2.10604e+06
-1.13776e+06
-1.60532e+06
-1.32551e+06
-1.43514e+06
-1.34255e+06
-1.35598e+06
-1.31501e+06
-1.30329e+06
-1.2773e+06
-1.25973e+06
-1.23877e+06
-1.22059e+06
-1.20197e+06
-1.18457e+06
-1.16753e+06
-1.15127e+06
-1.13556e+06
-1.12052e+06
-1.10607e+06
-1.09223e+06
-1.07898e+06
-1.06632e+06
-1.05424e+06
-1.04273e+06
-1.03178e+06
-1.02139e+06
-1.01154e+06
-1.00223e+06
-993452
-985192
-977444
-970200
-963452
-957193
-951415
-946110
-941273
-936897
-932975
-929503
-926476
-923890
-921740
-920024
-918740
-917884
-917457
-917457
-917884
-918740
-920024
-921740
-923890
-926476
-929503
-932975
-936897
-941273
-946110
-951415
-957193
-963452
-970200
-977443
-985191
-993451
-1.00223e+06
-1.01154e+06
-1.02139e+06
-1.03178e+06
-1.04273e+06
-1.05424e+06
-1.06632e+06
-1.07898e+06
-1.09223e+06
-1.10607e+06
-1.12052e+06
-1.13556e+06
-1.15127e+06
-1.16752e+06
-1.18457e+06
-1.20197e+06
-1.22059e+06
-1.23877e+06
-1.25973e+06
-1.27729e+06
-1.30329e+06
-1.31501e+06
-1.35597e+06
-1.34255e+06
-1.43514e+06
-1.32551e+06
-1.60532e+06
-1.13775e+06
-2.10604e+06
-315253
-3.82458e+06
-3.80888e+06
-322870
-2.10233e+06
-1.14206e+06
-1.60684e+06
-1.33016e+06
-1.43952e+06
-1.34841e+06
-1.36221e+06
-1.3221e+06
-1.31084e+06
-1.2854e+06
-1.26822e+06
-1.24765e+06
-1.22978e+06
-1.21144e+06
-1.19427e+06
-1.17743e+06
-1.16135e+06
-1.14579e+06
-1.13087e+06
-1.11652e+06
-1.10276e+06
-1.08958e+06
-1.07698e+06
-1.06494e+06
-1.05346e+06
-1.04253e+06
-1.03214e+06
-1.02229e+06
-1.01298e+06
-1.00418e+06
-995900
-988128
-980856
-974078
-967786
-961974
-956636
-951765
-947356
-943404
-939903
-936850
-934241
-932071
-930339
-929042
-928178
-927747
-927747
-928178
-929042
-930339
-932071
-934241
-936850
-939903
-943404
-947356
-951765
-956636
-961974
-967786
-974077
-980856
-988127
-995900
-1.00418e+06
-1.01298e+06
-1.02229e+06
-1.03214e+06
-1.04253e+06
-1.05346e+06
-1.06494e+06
-1.07698e+06
-1.08958e+06
-1.10276e+06
-1.11652e+06
-1.13087e+06
-1.14579e+06
-1.16135e+06
-1.17743e+06
-1.19427e+06
-1.21144e+06
-1.22978e+06
-1.24765e+06
-1.26822e+06
-1.2854e+06
-1.31084e+06
-1.3221e+06
-1.36221e+06
-1.34841e+06
-1.43952e+06
-1.33016e+06
-1.60684e+06
-1.14206e+06
-2.10234e+06
-322861
-3.8089e+06
-3.79766e+06
-329009
-2.1001e+06
-1.14587e+06
-1.60867e+06
-1.33443e+06
-1.4437e+06
-1.35382e+06
-1.36801e+06
-1.32865e+06
-1.31783e+06
-1.29291e+06
-1.27612e+06
-1.25593e+06
-1.23836e+06
-1.22029e+06
-1.20337e+06
-1.18673e+06
-1.17082e+06
-1.15541e+06
-1.14062e+06
-1.12638e+06
-1.11272e+06
-1.09961e+06
-1.08707e+06
-1.07508e+06
-1.06363e+06
-1.05272e+06
-1.04236e+06
-1.03251e+06
-1.0232e+06
-1.01439e+06
-1.0061e+06
-998311
-991018
-984216
-977899
-972060
-966694
-961795
-957359
-953381
-949856
-946780
-944151
-941964
-940218
-938911
-938040
-937604
-937604
-938040
-938911
-940218
-941964
-944151
-946780
-949856
-953381
-957359
-961795
-966693
-972059
-977898
-984216
-991018
-998311
-1.0061e+06
-1.01439e+06
-1.0232e+06
-1.03251e+06
-1.04235e+06
-1.05272e+06
-1.06363e+06
-1.07508e+06
-1.08707e+06
-1.09961e+06
-1.11272e+06
-1.12638e+06
-1.14062e+06
-1.15541e+06
-1.17082e+06
-1.18673e+06
-1.20336e+06
-1.22029e+06
-1.23836e+06
-1.25592e+06
-1.27612e+06
-1.29291e+06
-1.31783e+06
-1.32865e+06
-1.36801e+06
-1.35382e+06
-1.4437e+06
-1.33443e+06
-1.60867e+06
-1.14587e+06
-2.10011e+06
-329002
-3.79768e+06
-3.78978e+06
-334150
-2.09901e+06
-1.14936e+06
-1.61074e+06
-1.33842e+06
-1.44772e+06
-1.35884e+06
-1.37343e+06
-1.33473e+06
-1.32434e+06
-1.29988e+06
-1.28347e+06
-1.26363e+06
-1.24636e+06
-1.22857e+06
-1.21188e+06
-1.19544e+06
-1.17972e+06
-1.16446e+06
-1.1498e+06
-1.13568e+06
-1.12211e+06
-1.10909e+06
-1.09661e+06
-1.08467e+06
-1.07326e+06
-1.06239e+06
-1.05204e+06
-1.04221e+06
-1.0329e+06
-1.0241e+06
-1.0158e+06
-1.008e+06
-1.00069e+06
-993870
-987533
-981672
-976284
-971362
-966904
-962904
-959359
-956264
-953618
-951417
-949659
-948342
-947465
-947027
-947027
-947465
-948342
-949659
-951417
-953618
-956264
-959358
-962904
-966904