/*--------------------------------*- C++ -*----------------------------------*\
| =========                 |                                                 |
| \\      /  F ield         | foam-extend: Open Source CFD                    |
|  \\    /   O peration     | Version:     4.1                                |
|   \\  /    A nd           | Web:         http://www.foam-extend.org         |
|    \\/     M anipulation  |                                                 |
\*---------------------------------------------------------------------------*/
FoamFile
{
    version     2.0;
    format      ascii;
    class       volScalarField;
    location    "1";
    object      sigmaEq;
}
// * * * * * * * * * * * * * * * * * * * * * * * * * * * * * * * * * * * * * //

dimensions      [1 -1 -2 0 0 0 0];

internalField   nonuniform List<scalar> 
10000
(
3.08042e+06
2.68571e+06
2.50631e+06
2.23271e+06
2.04844e+06
1.88177e+06
1.73683e+06
1.60537e+06
1.48881e+06
1.38648e+06
1.29822e+06
1.22302e+06
1.15973e+06
1.10694e+06
1.06329e+06
1.02746e+06
998245
974588
955576
940436
928515
919271
912254
907087
903462
901119
899841
899445
899775
900700
902103
903887
905964
908258
910701
913233
915802
918361
920867
923283
925576
927718
929682
931447
932994
934307
935372
936180
936723
936996
936996
936723
936180
935372
934307
932994
931447
929682
927718
925576
923283
920867
918361
915802
913233
910701
908258
905964
903887
902104
900700
899775
899445
899841
901119
903462
907087
912253
919271
928515
940436
955576
974588
998245
1.02746e+06
1.0633e+06
1.10694e+06
1.15973e+06
1.22302e+06
1.29822e+06
1.38648e+06
1.4888e+06
1.60536e+06
1.73682e+06
1.88176e+06
2.04843e+06
2.23269e+06
2.50629e+06
2.68569e+06
3.08041e+06
3.37977e+06
2.98218e+06
2.70425e+06
2.41904e+06
2.22821e+06
2.04762e+06
1.89172e+06
1.74689e+06
1.61805e+06
1.50373e+06
1.40477e+06
1.32006e+06
1.24859e+06
1.18884e+06
1.1393e+06
1.0985e+06
1.06507e+06
1.0378e+06
1.01566e+06
997768
983386
971909
962837
955761
950344
946309
943427
941507
940388
939934
940030
940574
941479
942669
944075
945638
947304
949027
950763
952476
954132
955701
957157
958479
959647
960644
961458
962077
962494
962704
962704
962494
962077
961458
960644
959647
958479
957158
955701
954132
952476
950764
949027
947305
945638
944075
942669
941479
940574
940030
939934
940387
941506
943426
946308
950343
955760
962836
971907
983384
997766
1.01566e+06
1.0378e+06
1.06507e+06
1.0985e+06
1.13931e+06
1.18884e+06
1.2486e+06
1.32007e+06
1.40478e+06
1.50374e+06
1.61805e+06
1.74689e+06
1.89172e+06
2.04761e+06
2.2282e+06
2.41902e+06
2.70422e+06
2.98215e+06
3.37973e+06
3.06126e+06
2.74215e+06
2.58331e+06
2.4233e+06
2.28323e+06
2.12716e+06
1.98251e+06
1.84245e+06
1.71495e+06
1.5994e+06
1.49777e+06
1.40948e+06
1.33405e+06
1.27024e+06
1.21678e+06
1.17229e+06
1.13545e+06
1.10508e+06
1.08011e+06
1.05964e+06
1.0429e+06
1.02926e+06
1.01817e+06
1.00921e+06
1.00203e+06
996325
991859
988433
985879
984060
982854
982161
981893
981972
982331
982911
983659
984528
985475
986463
987460
988436
989366
990226
990998
991666
992216
992637
992923
993067
993067
992923
992637
992216
991666
990998
990226
989366
988437
987461
986464
985475
984528
983659
982912
982332
981972
981893
982161
982854
984059
985879
988432
991858
996323
1.00203e+06
1.00921e+06
1.01817e+06
1.02925e+06
1.0429e+06
1.05964e+06
1.08011e+06
1.10508e+06
1.13546e+06
1.17229e+06
1.21679e+06
1.27024e+06
1.33406e+06
1.40949e+06
1.49779e+06
1.59941e+06
1.71496e+06
1.84246e+06
1.98251e+06
2.12715e+06
2.28321e+06
2.42327e+06
2.58328e+06
2.74212e+06
3.06123e+06
2.7174e+06
2.59833e+06
2.45055e+06
2.32457e+06
2.21667e+06
2.09704e+06
1.98005e+06
1.86169e+06
1.75e+06
1.64552e+06
1.55112e+06
1.46706e+06
1.3937e+06
1.33043e+06
1.27652e+06
1.23094e+06
1.19268e+06
1.1607e+06
1.13408e+06
1.11198e+06
1.09366e+06
1.0785e+06
1.06599e+06
1.05568e+06
1.04722e+06
1.0403e+06
1.03468e+06
1.03015e+06
1.02654e+06
1.02371e+06
1.02153e+06
1.01992e+06
1.01877e+06
1.018e+06
1.01756e+06
1.01739e+06
1.01743e+06
1.01763e+06
1.01796e+06
1.01838e+06
1.01886e+06
1.01936e+06
1.01987e+06
1.02036e+06
1.02082e+06
1.02122e+06
1.02156e+06
1.02182e+06
1.022e+06
1.02209e+06
1.02209e+06
1.022e+06
1.02182e+06
1.02156e+06
1.02122e+06
1.02082e+06
1.02036e+06
1.01987e+06
1.01936e+06
1.01886e+06
1.01838e+06
1.01796e+06
1.01763e+06
1.01743e+06
1.01739e+06
1.01756e+06
1.018e+06
1.01876e+06
1.01992e+06
1.02153e+06
1.02371e+06
1.02654e+06
1.03015e+06
1.03468e+06
1.0403e+06
1.04722e+06
1.05568e+06
1.06599e+06
1.0785e+06
1.09366e+06
1.11198e+06
1.13408e+06
1.16071e+06
1.19268e+06
1.23095e+06
1.27653e+06
1.33044e+06
1.39371e+06
1.46707e+06
1.55113e+06
1.64553e+06
1.75001e+06
1.8617e+06
1.98005e+06
2.09704e+06
2.21666e+06
2.32456e+06
2.45053e+06
2.59831e+06
2.71738e+06
2.47203e+06
2.37394e+06
2.27297e+06
2.18688e+06
2.11127e+06
2.02717e+06
1.94046e+06
1.8479e+06
1.75635e+06
1.66732e+06
1.58421e+06
1.50807e+06
1.43996e+06
1.3799e+06
1.3277e+06
1.28279e+06
1.24447e+06
1.21197e+06
1.18455e+06
1.16148e+06
1.14212e+06
1.1259e+06
1.11233e+06
1.10098e+06
1.09151e+06
1.08362e+06
1.07705e+06
1.07161e+06
1.06713e+06
1.06346e+06
1.06047e+06
1.05807e+06
1.05617e+06
1.05468e+06
1.05356e+06
1.05273e+06
1.05215e+06
1.05177e+06
1.05156e+06
1.05148e+06
1.05149e+06
1.05158e+06
1.05171e+06
1.05187e+06
1.05204e+06
1.05221e+06
1.05235e+06
1.05247e+06
1.05255e+06
1.05259e+06
1.05259e+06
1.05255e+06
1.05247e+06
1.05235e+06
1.05221e+06
1.05204e+06
1.05187e+06
1.05171e+06
1.05158e+06
1.05149e+06
1.05148e+06
1.05156e+06
1.05177e+06
1.05215e+06
1.05273e+06
1.05356e+06
1.05468e+06
1.05617e+06
1.05807e+06
1.06047e+06
1.06346e+06
1.06713e+06
1.07161e+06
1.07705e+06
1.08361e+06
1.09151e+06
1.10098e+06
1.11233e+06
1.1259e+06
1.14212e+06
1.16148e+06
1.18455e+06
1.21198e+06
1.24447e+06
1.28279e+06
1.32771e+06
1.37991e+06
1.43997e+06
1.50809e+06
1.58422e+06
1.66733e+06
1.75636e+06
1.84791e+06
1.94046e+06
2.02717e+06
2.11127e+06
2.18686e+06
2.27296e+06
2.37393e+06
2.47202e+06
2.24238e+06
2.20046e+06
2.12925e+06
2.06151e+06
2.00061e+06
1.9375e+06
1.87353e+06
1.80427e+06
1.73348e+06
1.66209e+06
1.59312e+06
1.52791e+06
1.46791e+06
1.41365e+06
1.36541e+06
1.32305e+06
1.28626e+06
1.25454e+06
1.22739e+06
1.20423e+06
1.18457e+06
1.16789e+06
1.15378e+06
1.14185e+06
1.13177e+06
1.12326e+06
1.11608e+06
1.11004e+06
1.10495e+06
1.10069e+06
1.09713e+06
1.09417e+06
1.09172e+06
1.0897e+06
1.08807e+06
1.08675e+06
1.0857e+06
1.08487e+06
1.08424e+06
1.08377e+06
1.08342e+06
1.08318e+06
1.08301e+06
1.08291e+06
1.08285e+06
1.08283e+06
1.08282e+06
1.08282e+06
1.08283e+06
1.08283e+06
1.08283e+06
1.08283e+06
1.08282e+06
1.08282e+06
1.08283e+06
1.08285e+06
1.08291e+06
1.08301e+06
1.08318e+06
1.08342e+06
1.08377e+06
1.08424e+06
1.08487e+06
1.0857e+06
1.08675e+06
1.08806e+06
1.0897e+06
1.09172e+06
1.09417e+06
1.09713e+06
1.10069e+06
1.10495e+06
1.11004e+06
1.11608e+06
1.12326e+06
1.13177e+06
1.14185e+06
1.15378e+06
1.16789e+06
1.18457e+06
1.20424e+06
1.22739e+06
1.25455e+06
1.28626e+06
1.32306e+06
1.36542e+06
1.41366e+06
1.46792e+06
1.52793e+06
1.59313e+06
1.6621e+06
1.73349e+06
1.80428e+06
1.87353e+06
1.9375e+06
2.0006e+06
2.0615e+06
2.12925e+06
2.20045e+06
2.24239e+06
2.05335e+06
2.03663e+06
1.99081e+06
1.94208e+06
1.89484e+06
1.84706e+06
1.79981e+06
1.7491e+06
1.69636e+06
1.64159e+06
1.5869e+06
1.5335e+06
1.48288e+06
1.43583e+06
1.39298e+06
1.35451e+06
1.32043e+06
1.29054e+06
1.26454e+06
1.24206e+06
1.22272e+06
1.20613e+06
1.19194e+06
1.17982e+06
1.16947e+06
1.16065e+06
1.15312e+06
1.14671e+06
1.14124e+06
1.13659e+06
1.13263e+06
1.12928e+06
1.12644e+06
1.12404e+06
1.12202e+06
1.12033e+06
1.11893e+06
1.11777e+06
1.11681e+06
1.11603e+06
1.1154e+06
1.11489e+06
1.11449e+06
1.11418e+06
1.11394e+06
1.11376e+06
1.11362e+06
1.11353e+06
1.11347e+06
1.11345e+06
1.11345e+06
1.11347e+06
1.11353e+06
1.11362e+06
1.11376e+06
1.11394e+06
1.11418e+06
1.11449e+06
1.11489e+06
1.1154e+06
1.11603e+06
1.11681e+06
1.11777e+06
1.11893e+06
1.12033e+06
1.12202e+06
1.12404e+06
1.12644e+06
1.12928e+06
1.13263e+06
1.13659e+06
1.14124e+06
1.14671e+06
1.15312e+06
1.16065e+06
1.16947e+06
1.17982e+06
1.19194e+06
1.20613e+06
1.22272e+06
1.24206e+06
1.26454e+06
1.29055e+06
1.32044e+06
1.35452e+06
1.39298e+06
1.43584e+06
1.48288e+06
1.53351e+06
1.58691e+06
1.6416e+06
1.69637e+06
1.7491e+06
1.79981e+06
1.84706e+06
1.89484e+06
1.94208e+06
1.99081e+06
2.03663e+06
2.05336e+06
1.88583e+06
1.89686e+06
1.8718e+06
1.83772e+06
1.80061e+06
1.76283e+06
1.72646e+06
1.68881e+06
1.65009e+06
1.60946e+06
1.56792e+06
1.52617e+06
1.4854e+06
1.44642e+06
1.40996e+06
1.37646e+06
1.34613e+06
1.31901e+06
1.29502e+06
1.27397e+06
1.2556e+06
1.23966e+06
1.22588e+06
1.21399e+06
1.20375e+06
1.19493e+06
1.18735e+06
1.18083e+06
1.17522e+06
1.17039e+06
1.16624e+06
1.16268e+06
1.15962e+06
1.15699e+06
1.15475e+06
1.15283e+06
1.15119e+06
1.1498e+06
1.14862e+06
1.14763e+06
1.1468e+06
1.14611e+06
1.14554e+06
1.14508e+06
1.1447e+06
1.14441e+06
1.14418e+06
1.14402e+06
1.14392e+06
1.14386e+06
1.14386e+06
1.14392e+06
1.14402e+06
1.14418e+06
1.14441e+06
1.1447e+06
1.14508e+06
1.14554e+06
1.14611e+06
1.1468e+06
1.14763e+06
1.14862e+06
1.1498e+06
1.15119e+06
1.15282e+06
1.15475e+06
1.15699e+06
1.15962e+06
1.16268e+06
1.16624e+06
1.17039e+06
1.17522e+06
1.18082e+06
1.18735e+06
1.19493e+06
1.20375e+06
1.21399e+06
1.22588e+06
1.23967e+06
1.2556e+06
1.27397e+06
1.29503e+06
1.31902e+06
1.34613e+06
1.37646e+06
1.40997e+06
1.44643e+06
1.4854e+06
1.52618e+06
1.56792e+06
1.60946e+06
1.6501e+06
1.68881e+06
1.72645e+06
1.76282e+06
1.80061e+06
1.83772e+06
1.8718e+06
1.89686e+06
1.88585e+06
1.74481e+06
1.77124e+06
1.76226e+06
1.74172e+06
1.71469e+06
1.68567e+06
1.65764e+06
1.62947e+06
1.60125e+06
1.57184e+06
1.54144e+06
1.5102e+06
1.47885e+06
1.44801e+06
1.41837e+06
1.39042e+06
1.36453e+06
1.3409e+06
1.3196e+06
1.30059e+06
1.28377e+06
1.26899e+06
1.25605e+06
1.24478e+06
1.23498e+06
1.22648e+06
1.21911e+06
1.21272e+06
1.20718e+06
1.20238e+06
1.19822e+06
1.19462e+06
1.19149e+06
1.18878e+06
1.18643e+06
1.18439e+06
1.18264e+06
1.18112e+06
1.17982e+06
1.1787e+06
1.17775e+06
1.17694e+06
1.17626e+06
1.1757e+06
1.17524e+06
1.17486e+06
1.17458e+06
1.17437e+06
1.17423e+06
1.17416e+06
1.17416e+06
1.17423e+06
1.17437e+06
1.17458e+06
1.17486e+06
1.17524e+06
1.1757e+06
1.17626e+06
1.17694e+06
1.17775e+06
1.1787e+06
1.17982e+06
1.18112e+06
1.18264e+06
1.18439e+06
1.18643e+06
1.18877e+06
1.19149e+06
1.19461e+06
1.19822e+06
1.20238e+06
1.20718e+06
1.21272e+06
1.21911e+06
1.22648e+06
1.23498e+06
1.24478e+06
1.25605e+06
1.26899e+06
1.28377e+06
1.3006e+06
1.3196e+06
1.34091e+06
1.36454e+06
1.39043e+06
1.41838e+06
1.44802e+06
1.47885e+06
1.51021e+06
1.54144e+06
1.57184e+06
1.60125e+06
1.62947e+06
1.65763e+06
1.68567e+06
1.71469e+06
1.74172e+06
1.76226e+06
1.77125e+06
1.74483e+06
1.62318e+06
1.66085e+06
1.66411e+06
1.65461e+06
1.6366e+06
1.61526e+06
1.59399e+06
1.57292e+06
1.55246e+06
1.53162e+06
1.51022e+06
1.48795e+06
1.46511e+06
1.44202e+06
1.41918e+06
1.39706e+06
1.37603e+06
1.35639e+06
1.33831e+06
1.32188e+06
1.3071e+06
1.29393e+06
1.28226e+06
1.27198e+06
1.26296e+06
1.25507e+06
1.24817e+06
1.24216e+06
1.23691e+06
1.23233e+06
1.22834e+06
1.22485e+06
1.22181e+06
1.21915e+06
1.21683e+06
1.2148e+06
1.21303e+06
1.21149e+06
1.21016e+06
1.209e+06
1.208e+06
1.20714e+06
1.20641e+06
1.2058e+06
1.2053e+06
1.20489e+06
1.20457e+06
1.20433e+06
1.20418e+06
1.2041e+06
1.2041e+06
1.20418e+06
1.20433e+06
1.20457e+06
1.20489e+06
1.2053e+06
1.2058e+06
1.20641e+06
1.20714e+06
1.208e+06
1.209e+06
1.21016e+06
1.21149e+06
1.21303e+06
1.2148e+06
1.21683e+06
1.21915e+06
1.22181e+06
1.22485e+06
1.22833e+06
1.23233e+06
1.23691e+06
1.24215e+06
1.24817e+06
1.25507e+06
1.26296e+06
1.27198e+06
1.28226e+06
1.29393e+06
1.30711e+06
1.32188e+06
1.33831e+06
1.35639e+06
1.37603e+06
1.39706e+06
1.41919e+06
1.44202e+06
1.46511e+06
1.48796e+06
1.51022e+06
1.53162e+06
1.55246e+06
1.57292e+06
1.59399e+06
1.61526e+06
1.6366e+06
1.65461e+06
1.66412e+06
1.66086e+06
1.6232e+06
1.51989e+06
1.56267e+06
1.57445e+06
1.57383e+06
1.56396e+06
1.54984e+06
1.53479e+06
1.5197e+06
1.50535e+06
1.49117e+06
1.47688e+06
1.46202e+06
1.44651e+06
1.43042e+06
1.41403e+06
1.39764e+06
1.38161e+06
1.36623e+06
1.35174e+06
1.33828e+06
1.32594e+06
1.31476e+06
1.30472e+06
1.29577e+06
1.28783e+06
1.28082e+06
1.27465e+06
1.26923e+06
1.26447e+06
1.2603e+06
1.25664e+06
1.25343e+06
1.25061e+06
1.24813e+06
1.24596e+06
1.24405e+06
1.24237e+06
1.2409e+06
1.23961e+06
1.23849e+06
1.23752e+06
1.23667e+06
1.23595e+06
1.23534e+06
1.23483e+06
1.23442e+06
1.2341e+06
1.23386e+06
1.2337e+06
1.23362e+06
1.23362e+06
1.2337e+06
1.23386e+06
1.2341e+06
1.23442e+06
1.23483e+06
1.23534e+06
1.23595e+06
1.23667e+06
1.23752e+06
1.23849e+06
1.23961e+06
1.2409e+06
1.24237e+06
1.24405e+06
1.24596e+06
1.24813e+06
1.25061e+06
1.25342e+06
1.25664e+06
1.2603e+06
1.26447e+06
1.26923e+06
1.27465e+06
1.28082e+06
1.28783e+06
1.29577e+06
1.30472e+06
1.31477e+06
1.32595e+06
1.33828e+06
1.35174e+06
1.36624e+06
1.38162e+06
1.39765e+06
1.41403e+06
1.43042e+06
1.44651e+06
1.46202e+06
1.47689e+06
1.49117e+06
1.50535e+06
1.51969e+06
1.53478e+06
1.54984e+06
1.56396e+06
1.57383e+06
1.57445e+06
1.56269e+06
1.51991e+06
1.43106e+06
1.47569e+06
1.4931e+06
1.49911e+06
1.4961e+06
1.48844e+06
1.47912e+06
1.46935e+06
1.46015e+06
1.45134e+06
1.44276e+06
1.43392e+06
1.4246e+06
1.41465e+06
1.40412e+06
1.39318e+06
1.38207e+06
1.37104e+06
1.36031e+06
1.35009e+06
1.34049e+06
1.33162e+06
1.32352e+06
1.31618e+06
1.30959e+06
1.30372e+06
1.2985e+06
1.29389e+06
1.28981e+06
1.28622e+06
1.28305e+06
1.28026e+06
1.2778e+06
1.27563e+06
1.27372e+06
1.27203e+06
1.27054e+06
1.26923e+06
1.26808e+06
1.26707e+06
1.26618e+06
1.26541e+06
1.26475e+06
1.26419e+06
1.26372e+06
1.26333e+06
1.26303e+06
1.26281e+06
1.26266e+06
1.26258e+06
1.26258e+06
1.26266e+06
1.26281e+06
1.26303e+06
1.26333e+06
1.26372e+06
1.26419e+06
1.26475e+06
1.26541e+06
1.26618e+06
1.26707e+06
1.26808e+06
1.26923e+06
1.27054e+06
1.27203e+06
1.27372e+06
1.27563e+06
1.2778e+06
1.28026e+06
1.28305e+06
1.28622e+06
1.28981e+06
1.29389e+06
1.2985e+06
1.30372e+06
1.3096e+06
1.31618e+06
1.32352e+06
1.33162e+06
1.3405e+06
1.35009e+06
1.36032e+06
1.37104e+06
1.38207e+06
1.39318e+06
1.40412e+06
1.41465e+06
1.4246e+06
1.43392e+06
1.44276e+06
1.45134e+06
1.46015e+06
1.46934e+06
1.47912e+06
1.48844e+06
1.4961e+06
1.49911e+06
1.4931e+06
1.4757e+06
1.43108e+06
1.35456e+06
1.39816e+06
1.41881e+06
1.42954e+06
1.43209e+06
1.43011e+06
1.42608e+06
1.42124e+06
1.41668e+06
1.41248e+06
1.40865e+06
1.4048e+06
1.40067e+06
1.396e+06
1.39068e+06
1.38475e+06
1.37831e+06
1.37154e+06
1.36464e+06
1.35778e+06
1.35112e+06
1.34478e+06
1.33885e+06
1.33338e+06
1.32838e+06
1.32386e+06
1.31981e+06
1.31619e+06
1.31297e+06
1.31012e+06
1.30759e+06
1.30536e+06
1.30339e+06
1.30164e+06
1.30009e+06
1.29873e+06
1.29752e+06
1.29645e+06
1.2955e+06
1.29467e+06
1.29394e+06
1.2933e+06
1.29275e+06
1.29228e+06
1.29188e+06
1.29155e+06
1.2913e+06
1.29111e+06
1.29098e+06
1.29092e+06
1.29092e+06
1.29098e+06
1.29111e+06
1.2913e+06
1.29155e+06
1.29188e+06
1.29227e+06
1.29275e+06
1.2933e+06
1.29394e+06
1.29467e+06
1.2955e+06
1.29645e+06
1.29752e+06
1.29873e+06
1.30009e+06
1.30164e+06
1.30338e+06
1.30536e+06
1.30759e+06
1.31012e+06
1.31297e+06
1.31619e+06
1.31981e+06
1.32386e+06
1.32838e+06
1.33338e+06
1.33885e+06
1.34479e+06
1.35112e+06
1.35778e+06
1.36464e+06
1.37155e+06
1.37831e+06
1.38475e+06
1.39068e+06
1.396e+06
1.40067e+06
1.4048e+06
1.40865e+06
1.41248e+06
1.41668e+06
1.42124e+06
1.42608e+06
1.43011e+06
1.4321e+06
1.42954e+06
1.41882e+06
1.39817e+06
1.35457e+06
1.28783e+06
1.32878e+06
1.35094e+06
1.36477e+06
1.37165e+06
1.37442e+06
1.37513e+06
1.37482e+06
1.37454e+06
1.37449e+06
1.3748e+06
1.37522e+06
1.3755e+06
1.37537e+06
1.37464e+06
1.37322e+06
1.37112e+06
1.36842e+06
1.36527e+06
1.3618e+06
1.35818e+06
1.35452e+06
1.35093e+06
1.34751e+06
1.34429e+06
1.34132e+06
1.33861e+06
1.33616e+06
1.33396e+06
1.332e+06
1.33025e+06
1.32871e+06
1.32733e+06
1.32612e+06
1.32504e+06
1.32408e+06
1.32324e+06
1.32248e+06
1.32182e+06
1.32123e+06
1.32071e+06
1.32025e+06
1.31986e+06
1.31952e+06
1.31923e+06
1.319e+06
1.31881e+06
1.31867e+06
1.31858e+06
1.31853e+06
1.31853e+06
1.31858e+06
1.31867e+06
1.31881e+06
1.319e+06
1.31923e+06
1.31952e+06
1.31986e+06
1.32025e+06
1.32071e+06
1.32123e+06
1.32182e+06
1.32248e+06
1.32324e+06
1.32408e+06
1.32504e+06
1.32612e+06
1.32733e+06
1.3287e+06
1.33025e+06
1.332e+06
1.33396e+06
1.33616e+06
1.33861e+06
1.34132e+06
1.34429e+06
1.34751e+06
1.35093e+06
1.35452e+06
1.35818e+06
1.3618e+06
1.36527e+06
1.36842e+06
1.37112e+06
1.37322e+06
1.37464e+06
1.37537e+06
1.3755e+06
1.37521e+06
1.3748e+06
1.37448e+06
1.37454e+06
1.37482e+06
1.37513e+06
1.37442e+06
1.37165e+06
1.36477e+06
1.35094e+06
1.32879e+06
1.28784e+06
1.22902e+06
1.26624e+06
1.28861e+06
1.30429e+06
1.31439e+06
1.32105e+06
1.3259e+06
1.32972e+06
1.33341e+06
1.33719e+06
1.34126e+06
1.34545e+06
1.3496e+06
1.35343e+06
1.35673e+06
1.35934e+06
1.36121e+06
1.36233e+06
1.36277e+06
1.36264e+06
1.36206e+06
1.36115e+06
1.36002e+06
1.35878e+06
1.35749e+06
1.35622e+06
1.35501e+06
1.35387e+06
1.35283e+06
1.3519e+06
1.35106e+06
1.35031e+06
1.34965e+06
1.34906e+06
1.34854e+06
1.34808e+06
1.34768e+06
1.34731e+06
1.34699e+06
1.34671e+06
1.34645e+06
1.34623e+06
1.34603e+06
1.34586e+06
1.34572e+06
1.3456e+06
1.3455e+06
1.34543e+06
1.34538e+06
1.34536e+06
1.34536e+06
1.34538e+06
1.34543e+06
1.3455e+06
1.3456e+06
1.34572e+06
1.34586e+06
1.34603e+06
1.34623e+06
1.34645e+06
1.34671e+06
1.34699e+06
1.34731e+06
1.34768e+06
1.34808e+06
1.34854e+06
1.34906e+06
1.34964e+06
1.35031e+06
1.35105e+06
1.3519e+06
1.35283e+06
1.35387e+06
1.35501e+06
1.35622e+06
1.35749e+06
1.35878e+06
1.36002e+06
1.36115e+06
1.36206e+06
1.36264e+06
1.36277e+06
1.36233e+06
1.36121e+06
1.35934e+06
1.35673e+06
1.35343e+06
1.3496e+06
1.34545e+06
1.34125e+06
1.33719e+06
1.33341e+06
1.32972e+06
1.3259e+06
1.32105e+06
1.3144e+06
1.30429e+06
1.28861e+06
1.26625e+06
1.22904e+06
1.17643e+06
1.20942e+06
1.23112e+06
1.2477e+06
1.26013e+06
1.26987e+06
1.27823e+06
1.28573e+06
1.29307e+06
1.30041e+06
1.30796e+06
1.31561e+06
1.32322e+06
1.33058e+06
1.33747e+06
1.34371e+06
1.34918e+06
1.35382e+06
1.35766e+06
1.36074e+06
1.36315e+06
1.365e+06
1.36638e+06
1.3674e+06
1.36815e+06
1.36869e+06
1.3691e+06
1.36941e+06
1.36965e+06
1.36985e+06
1.37003e+06
1.37018e+06
1.37033e+06
1.37046e+06
1.37059e+06
1.3707e+06
1.37081e+06
1.37091e+06
1.37099e+06
1.37106e+06
1.37112e+06
1.37118e+06
1.37122e+06
1.37125e+06
1.37128e+06
1.3713e+06
1.37131e+06
1.37132e+06
1.37133e+06
1.37133e+06
1.37133e+06
1.37133e+06
1.37132e+06
1.37131e+06
1.3713e+06
1.37128e+06
1.37125e+06
1.37122e+06
1.37117e+06
1.37112e+06
1.37106e+06
1.37099e+06
1.3709e+06
1.37081e+06
1.3707e+06
1.37059e+06
1.37046e+06
1.37033e+06
1.37018e+06
1.37003e+06
1.36985e+06
1.36965e+06
1.36941e+06
1.3691e+06
1.3687e+06
1.36815e+06
1.3674e+06
1.36638e+06
1.365e+06
1.36315e+06
1.36074e+06
1.35766e+06
1.35382e+06
1.34917e+06
1.3437e+06
1.33747e+06
1.33058e+06
1.32322e+06
1.3156e+06
1.30796e+06
1.30041e+06
1.29307e+06
1.28573e+06
1.27823e+06
1.26987e+06
1.26013e+06
1.24771e+06
1.23113e+06
1.20943e+06
1.17644e+06
1.12871e+06
1.15733e+06
1.1778e+06
1.1946e+06
1.20862e+06
1.22075e+06
1.23206e+06
1.24276e+06
1.25341e+06
1.26406e+06
1.27486e+06
1.28572e+06
1.29653e+06
1.30709e+06
1.31723e+06
1.32674e+06
1.3355e+06
1.3434e+06
1.35041e+06
1.35654e+06
1.36185e+06
1.3664e+06
1.37029e+06
1.37362e+06
1.37646e+06
1.3789e+06
1.38102e+06
1.38286e+06
1.38449e+06
1.38593e+06
1.38721e+06
1.38837e+06
1.3894e+06
1.39034e+06
1.39119e+06
1.39195e+06
1.39263e+06
1.39324e+06
1.39379e+06
1.39427e+06
1.39469e+06
1.39506e+06
1.39537e+06
1.39564e+06
1.39587e+06
1.39605e+06
1.39619e+06
1.3963e+06
1.39637e+06
1.3964e+06
1.3964e+06
1.39637e+06
1.3963e+06
1.39619e+06
1.39605e+06
1.39587e+06
1.39564e+06
1.39537e+06
1.39506e+06
1.39469e+06
1.39427e+06
1.39379e+06
1.39324e+06
1.39263e+06
1.39195e+06
1.39118e+06
1.39034e+06
1.3894e+06
1.38836e+06
1.38721e+06
1.38593e+06
1.38449e+06
1.38286e+06
1.38102e+06
1.3789e+06
1.37646e+06
1.37362e+06
1.37029e+06
1.3664e+06
1.36185e+06
1.35654e+06
1.35041e+06
1.3434e+06
1.3355e+06
1.32674e+06
1.31723e+06
1.30709e+06
1.29652e+06
1.28571e+06
1.27486e+06
1.26406e+06
1.25341e+06
1.24276e+06
1.23206e+06
1.22076e+06
1.20862e+06
1.19461e+06
1.17781e+06
1.15734e+06
1.12872e+06
1.08476e+06
1.10913e+06
1.12806e+06
1.14461e+06
1.15966e+06
1.17363e+06
1.18735e+06
1.20083e+06
1.21444e+06
1.22812e+06
1.24195e+06
1.25581e+06
1.2696e+06
1.28315e+06
1.29627e+06
1.30878e+06
1.32055e+06
1.33145e+06
1.34141e+06
1.35043e+06
1.3585e+06
1.36568e+06
1.37204e+06
1.37766e+06
1.38263e+06
1.38701e+06
1.3909e+06
1.39435e+06
1.39744e+06
1.40019e+06
1.40267e+06
1.40489e+06
1.4069e+06
1.40871e+06
1.41034e+06
1.41181e+06
1.41313e+06
1.41431e+06
1.41537e+06
1.4163e+06
1.41713e+06
1.41785e+06
1.41848e+06
1.41901e+06
1.41946e+06
1.41982e+06
1.42011e+06
1.42032e+06
1.42046e+06
1.42053e+06
1.42053e+06
1.42046e+06
1.42032e+06
1.42011e+06
1.41982e+06
1.41946e+06
1.41901e+06
1.41847e+06
1.41785e+06
1.41713e+06
1.4163e+06
1.41537e+06
1.41431e+06
1.41313e+06
1.41181e+06
1.41034e+06
1.40871e+06
1.4069e+06
1.40489e+06
1.40267e+06
1.40019e+06
1.39744e+06
1.39435e+06
1.3909e+06
1.38701e+06
1.38263e+06
1.37766e+06
1.37204e+06
1.36568e+06
1.3585e+06
1.35043e+06
1.34141e+06
1.33145e+06
1.32055e+06
1.30878e+06
1.29626e+06
1.28314e+06
1.2696e+06
1.25581e+06
1.24195e+06
1.22812e+06
1.21444e+06
1.20083e+06
1.18735e+06
1.17363e+06
1.15966e+06
1.14462e+06
1.12806e+06
1.10914e+06
1.08477e+06
1.04371e+06
1.0641e+06
1.08135e+06
1.09738e+06
1.11306e+06
1.12841e+06
1.1441e+06
1.15995e+06
1.17619e+06
1.19263e+06
1.20927e+06
1.22594e+06
1.24254e+06
1.25887e+06
1.27477e+06
1.29007e+06
1.30462e+06
1.3183e+06
1.33102e+06
1.34273e+06
1.35343e+06
1.36314e+06
1.3719e+06
1.37978e+06
1.38686e+06
1.3932e+06
1.3989e+06
1.40401e+06
1.4086e+06
1.41273e+06
1.41646e+06
1.41983e+06
1.42286e+06
1.42561e+06
1.42808e+06
1.43032e+06
1.43232e+06
1.43412e+06
1.43573e+06
1.43716e+06
1.43843e+06
1.43954e+06
1.4405e+06
1.44132e+06
1.44201e+06
1.44258e+06
1.44303e+06
1.44336e+06
1.44358e+06
1.44369e+06
1.44369e+06
1.44358e+06
1.44336e+06
1.44303e+06
1.44258e+06
1.44201e+06
1.44132e+06
1.4405e+06
1.43953e+06
1.43843e+06
1.43716e+06
1.43573e+06
1.43412e+06
1.43232e+06
1.43032e+06
1.42808e+06
1.42561e+06
1.42286e+06
1.41983e+06
1.41646e+06
1.41273e+06
1.4086e+06
1.40401e+06
1.3989e+06
1.3932e+06
1.38686e+06
1.37978e+06
1.3719e+06
1.36314e+06
1.35343e+06
1.34273e+06
1.33102e+06
1.3183e+06
1.30462e+06
1.29007e+06
1.27477e+06
1.25886e+06
1.24253e+06
1.22594e+06
1.20927e+06
1.19263e+06
1.17619e+06
1.15995e+06
1.14411e+06
1.12841e+06
1.11306e+06
1.09738e+06
1.08135e+06
1.06411e+06
1.04371e+06
1.00486e+06
1.02166e+06
1.03722e+06
1.05258e+06
1.0686e+06
1.085e+06
1.10232e+06
1.12019e+06
1.13873e+06
1.15766e+06
1.17689e+06
1.19619e+06
1.21541e+06
1.23437e+06
1.25288e+06
1.27079e+06
1.28794e+06
1.30421e+06
1.31951e+06
1.33376e+06
1.34694e+06
1.35906e+06
1.37013e+06
1.38021e+06
1.38937e+06
1.39766e+06
1.40516e+06
1.41195e+06
1.41809e+06
1.42365e+06
1.42867e+06
1.43322e+06
1.43734e+06
1.44107e+06
1.44444e+06
1.44748e+06
1.45022e+06
1.45268e+06
1.45488e+06
1.45684e+06
1.45858e+06
1.4601e+06
1.46143e+06
1.46256e+06
1.46352e+06
1.46431e+06
1.46493e+06
1.46539e+06
1.46569e+06
1.46585e+06
1.46585e+06
1.46569e+06
1.46539e+06
1.46493e+06
1.46431e+06
1.46352e+06
1.46256e+06
1.46143e+06
1.4601e+06
1.45858e+06
1.45684e+06
1.45488e+06
1.45268e+06
1.45022e+06
1.44748e+06
1.44444e+06
1.44107e+06
1.43734e+06
1.43322e+06
1.42867e+06
1.42365e+06
1.41809e+06
1.41195e+06
1.40516e+06
1.39766e+06
1.38937e+06
1.38021e+06
1.37013e+06
1.35906e+06
1.34694e+06
1.33376e+06
1.31951e+06
1.30421e+06
1.28794e+06
1.27079e+06
1.25288e+06
1.23437e+06
1.21541e+06
1.19619e+06
1.17689e+06
1.15766e+06
1.13873e+06
1.12019e+06
1.10232e+06
1.085e+06
1.06861e+06
1.05258e+06
1.03723e+06
1.02166e+06
1.00486e+06
967670
981298
995276
1.00991e+06
1.02612e+06
1.04332e+06
1.06197e+06
1.08158e+06
1.10216e+06
1.12332e+06
1.14492e+06
1.16666e+06
1.18835e+06
1.20977e+06
1.23075e+06
1.25111e+06
1.27071e+06
1.28941e+06
1.30711e+06
1.32375e+06
1.33927e+06
1.35368e+06
1.36697e+06
1.37918e+06
1.39035e+06
1.40056e+06
1.40987e+06
1.41833e+06
1.42603e+06
1.43303e+06
1.43939e+06
1.44516e+06
1.4504e+06
1.45514e+06
1.45945e+06
1.46333e+06
1.46684e+06
1.47e+06
1.47283e+06
1.47535e+06
1.47758e+06
1.47955e+06
1.48126e+06
1.48273e+06
1.48397e+06
1.48499e+06
1.48579e+06
1.48639e+06
1.48679e+06
1.48698e+06
1.48698e+06
1.48679e+06
1.48639e+06
1.48579e+06
1.48499e+06
1.48397e+06
1.48273e+06
1.48126e+06
1.47955e+06
1.47758e+06
1.47535e+06
1.47283e+06
1.47e+06
1.46684e+06
1.46333e+06
1.45945e+06
1.45514e+06
1.4504e+06
1.44516e+06
1.43939e+06
1.43303e+06
1.42603e+06
1.41833e+06
1.40987e+06
1.40056e+06
1.39035e+06
1.37918e+06
1.36697e+06
1.35368e+06
1.33927e+06
1.32375e+06
1.30711e+06
1.28941e+06
1.27071e+06
1.25111e+06
1.23075e+06
1.20977e+06
1.18835e+06
1.16666e+06
1.14492e+06
1.12333e+06
1.10216e+06
1.08158e+06
1.06198e+06
1.04332e+06
1.02612e+06
1.00991e+06
995281
981303
967676
931735
942627
955175
969118
985410
1.00326e+06
1.02305e+06
1.04416e+06
1.06654e+06
1.08971e+06
1.11347e+06
1.13746e+06
1.16145e+06
1.1852e+06
1.2085e+06
1.23118e+06
1.25307e+06
1.27406e+06
1.29404e+06
1.31292e+06
1.33066e+06
1.34723e+06
1.36263e+06
1.37688e+06
1.39002e+06
1.40209e+06
1.41316e+06
1.42329e+06
1.43255e+06
1.44099e+06
1.4487e+06
1.45571e+06
1.46209e+06
1.46789e+06
1.47315e+06
1.47792e+06
1.48223e+06
1.48611e+06
1.48959e+06
1.49269e+06
1.49545e+06
1.49788e+06
1.5e+06
1.50182e+06
1.50335e+06
1.50462e+06
1.50562e+06
1.50636e+06
1.50685e+06
1.5071e+06
1.5071e+06
1.50685e+06
1.50636e+06
1.50562e+06
1.50462e+06
1.50335e+06
1.50182e+06
1.5e+06
1.49788e+06
1.49545e+06
1.49269e+06
1.48959e+06
1.48611e+06
1.48223e+06
1.47792e+06
1.47315e+06
1.46789e+06
1.46209e+06
1.45571e+06
1.4487e+06
1.44099e+06
1.43255e+06
1.42329e+06
1.41316e+06
1.40209e+06
1.39001e+06
1.37688e+06
1.36263e+06
1.34723e+06
1.33066e+06
1.31292e+06
1.29403e+06
1.27406e+06
1.25307e+06
1.23118e+06
1.2085e+06
1.1852e+06
1.16145e+06
1.13746e+06
1.11347e+06
1.08972e+06
1.06654e+06
1.04416e+06
1.02305e+06
1.00326e+06
985413
969122
955179
942631
931739
896733
905315
916626
929961
946316
964715
985494
1.00794e+06
1.03192e+06
1.05692e+06
1.08265e+06
1.10872e+06
1.13485e+06
1.16077e+06
1.18626e+06
1.21112e+06
1.23519e+06
1.25834e+06
1.28045e+06
1.30145e+06
1.32128e+06
1.3399e+06
1.35731e+06
1.37351e+06
1.38853e+06
1.40241e+06
1.41521e+06
1.42697e+06
1.43776e+06
1.44765e+06
1.4567e+06
1.46496e+06
1.4725e+06
1.47937e+06
1.48561e+06
1.49128e+06
1.49641e+06
1.50103e+06
1.50519e+06
1.5089e+06
1.5122e+06
1.51511e+06
1.51765e+06
1.51983e+06
1.52168e+06
1.52319e+06
1.5244e+06
1.52529e+06
1.52588e+06
1.52618e+06
1.52618e+06
1.52588e+06
1.52529e+06
1.5244e+06
1.52319e+06
1.52168e+06
1.51983e+06
1.51765e+06
1.51511e+06
1.5122e+06
1.5089e+06
1.50519e+06
1.50103e+06
1.49641e+06
1.49128e+06
1.48561e+06
1.47937e+06
1.4725e+06
1.46496e+06
1.4567e+06
1.44765e+06
1.43776e+06
1.42697e+06
1.41521e+06
1.40241e+06
1.38853e+06
1.37351e+06
1.35731e+06
1.3399e+06
1.32128e+06
1.30145e+06
1.28045e+06
1.25834e+06
1.23519e+06
1.21112e+06
1.18626e+06
1.16077e+06
1.13485e+06
1.10872e+06
1.08265e+06
1.05692e+06
1.03193e+06
1.00794e+06
985496
964718
946319
929965
916630
905319
896736
862426
869100
879388
892234
908677
927590
949271
972925
998370
1.02503e+06
1.05256e+06
1.08055e+06
1.10867e+06
1.13662e+06
1.16416e+06
1.19108e+06
1.2172e+06
1.24238e+06
1.26651e+06
1.28951e+06
1.31131e+06
1.33188e+06
1.35119e+06
1.36925e+06
1.38607e+06
1.40169e+06
1.41615e+06
1.4295e+06
1.44181e+06
1.45312e+06
1.4635e+06
1.47301e+06
1.48171e+06
1.48965e+06
1.49689e+06
1.50346e+06
1.50942e+06
1.51481e+06
1.51966e+06
1.52399e+06
1.52785e+06
1.53125e+06
1.53422e+06
1.53678e+06
1.53895e+06
1.54073e+06
1.54214e+06
1.54319e+06
1.54389e+06
1.54423e+06
1.54423e+06
1.54389e+06
1.54319e+06
1.54214e+06
1.54073e+06
1.53895e+06
1.53678e+06
1.53422e+06
1.53125e+06
1.52785e+06
1.52399e+06
1.51965e+06
1.51481e+06
1.50942e+06
1.50346e+06
1.49689e+06
1.48965e+06
1.48171e+06
1.47301e+06
1.4635e+06
1.45312e+06
1.44181e+06
1.4295e+06
1.41615e+06
1.40169e+06
1.38607e+06
1.36925e+06
1.35119e+06
1.33188e+06
1.31131e+06
1.28951e+06
1.26651e+06
1.24238e+06
1.2172e+06
1.19108e+06
1.16416e+06
1.13662e+06
1.10867e+06
1.08055e+06
1.05256e+06
1.02503e+06
998372
972928
949274
927593
908680
892237
879391
869103
862429
828635
833767
843253
855753
872348
891783
914324
939104
965902
994087
1.02329e+06
1.05305e+06
1.08302e+06
1.11286e+06
1.14232e+06
1.17117e+06
1.19922e+06
1.22632e+06
1.25236e+06
1.27724e+06
1.30091e+06
1.32331e+06
1.34442e+06
1.36424e+06
1.38279e+06
1.40007e+06
1.41614e+06
1.43103e+06
1.4448e+06
1.4575e+06
1.46919e+06
1.47994e+06
1.48979e+06
1.4988e+06
1.50703e+06
1.51453e+06
1.52133e+06
1.52749e+06
1.53303e+06
1.538e+06
1.54243e+06
1.54633e+06
1.54975e+06
1.55269e+06
1.55518e+06
1.55723e+06
1.55886e+06
1.56007e+06
1.56087e+06
1.56127e+06
1.56127e+06
1.56087e+06
1.56007e+06
1.55886e+06
1.55723e+06
1.55518e+06
1.55269e+06
1.54975e+06
1.54633e+06
1.54243e+06
1.538e+06
1.53303e+06
1.52749e+06
1.52133e+06
1.51453e+06
1.50703e+06
1.4988e+06
1.48979e+06
1.47994e+06
1.46919e+06
1.4575e+06
1.4448e+06
1.43103e+06
1.41614e+06
1.40007e+06
1.38279e+06
1.36424e+06
1.34442e+06
1.32331e+06
1.3009e+06
1.27724e+06
1.25236e+06
1.22632e+06
1.19922e+06
1.17117e+06
1.14232e+06
1.11286e+06
1.08302e+06
1.05305e+06
1.02329e+06
994088
965904
939107
914326
891786
872351
855756
843256
833770
828637
795227
799149
808052
820362
837201
857198
880593
906458
934534
964151
994909
1.02632e+06
1.058e+06
1.08961e+06
1.12086e+06
1.15151e+06
1.18137e+06
1.21028e+06
1.23811e+06
1.26477e+06
1.2902e+06
1.31433e+06
1.33715e+06
1.35865e+06
1.37882e+06
1.3977e+06
1.4153e+06
1.43167e+06
1.44686e+06
1.46091e+06
1.47389e+06
1.48584e+06
1.49683e+06
1.5069e+06
1.51612e+06
1.52453e+06
1.53218e+06
1.5391e+06
1.54535e+06
1.55096e+06
1.55596e+06
1.56038e+06
1.56424e+06
1.56757e+06
1.57039e+06
1.57272e+06
1.57456e+06
1.57594e+06
1.57685e+06
1.5773e+06
1.5773e+06
1.57685e+06
1.57594e+06
1.57456e+06
1.57272e+06
1.57039e+06
1.56757e+06
1.56424e+06
1.56038e+06