/*
 _____     _____     _____ _____ _____ _____    |  High-order Python FOAM
|  |  |___|  _  |_ _|   __|     |  _  |     |   |  Python Version: 3.10
|     | . |   __| | |   __|  |  |     | | | |   |  Code Version: 0.0
|__|__|___|__|  |_  |__|  |_____|__|__|_|_|_|   |  License: GPLv3
                |___|
*/
FoamFile
{
    version     2.0;
    format      ascii;
    class       volScalarField;
    location    "79.0";
    object     p;
}

dimensions      [0 0 0 1 0 0 0]; 

internalField   nonuniform List<scalar>
100
(
392579.49511989974 
-147372.74579705315 
-202192.5820079626 
-152273.88049614517 
-133511.2581546855 
-133782.27323307522 
-152628.65179039614 
-200046.46564212884 
-119079.03108345765 
369292.2908908091 
1337278.5556664974 
383346.74334717414 
154969.1861012888 
178256.25344987932 
201807.75865749572 
202123.66626119288 
180058.43243039562 
162314.43896193913 
387768.3313676366 
1325594.7102151648 
1450741.381060523 
517473.3896440463 
212983.0796714906 
208286.8757443405 
225697.55262004447 
225935.00942646211 
209522.98142987408 
215155.30542211796 
518347.0170112295 
1443887.3402608235 
1614441.1569436889 
579692.5262657505 
261091.5725313022 
237550.31542807858 
248053.32290650322 
248107.6005046988 
237796.92708089986 
261292.8825212585 
578508.1680114113 
1612190.7618434525 
1695552.3360223153 
632116.6654280898 
296384.17827716784 
266547.92808284855 
273147.36258469627 
273089.46842363494 
266412.2039703575 
296004.50643517106 
631106.1448736311 
1693559.545232321 
1697565.8909360557 
632037.9350925796 
295958.564042306 
266196.233546114 
272894.3091952335 
272826.27866065304 
266070.2208773195 
295555.41920977214 
630859.2398337558 
1695261.610036523 
1620624.3255522847 
579466.2106833608 
259613.6249340215 
236570.25604516527 
247332.67195285604 
247347.15899560112 
236663.79302164674 
259545.75444749522 
577868.9595305003 
1617256.9397979695 
1463089.3619555132 
516410.4057282153 
210019.2911468947 
206600.48071371156 
224547.3883530158 
224691.2585070149 
207259.26114204552 
211284.82408702528 
515191.147896183 
1453665.8832794223 
1355603.4627142237 
380324.66524527123 
152081.45990146123 
176379.48187205748 
200575.31677753857 
200779.9652690929 
177505.57799385363 
154093.93091645036 
381827.59792280605 
1336877.1352578548 
390584.1630240931 
-143803.84449773727 
-202421.1971189297 
-151662.84458992933 
-132712.37058095055 
-132856.52645570316 
-152012.04995937398 
-202415.2639258667 
-147473.81900911045 
391424.833663749 
)
;

boundaryField
{
	bottom
	{
		type	pressureTraction;
	}
	top
	{
		type	pressureTraction;
	}
	left
	{
		type	fixedValueFromZeroGrad;
	}
	right
	{
		type	fixedValueFromZeroGrad;
	}
	frontAndBackPlanes
	{
		type	empty;
	}
}
