/*
 _____     _____     _____ _____ _____ _____    |  High-order Python FOAM
|  |  |___|  _  |_ _|   __|     |  _  |     |   |  Python Version: 3.10
|     | . |   __| | |   __|  |  |     | | | |   |  Code Version: 0.0
|__|__|___|__|  |_  |__|  |_____|__|__|_|_|_|   |  License: GPLv3
                |___|
*/
FoamFile
{
    version     2.0;
    format      ascii;
    class       volVectorField;
    location    "93.0";
    object     U;
}

dimensions      [0 1 0 0 0 0 0]; 

internalField   nonuniform List<vector>
100
(
(0.015133402415766826 0.036720663541300276 0.0) 
(0.02006412221819137 0.04626214965269819 0.0) 
(0.028631576315903767 0.04687965863211887 0.0) 
(0.037397561504582365 0.04943260010386122 0.0) 
(0.04591564230529107 0.050892330121169504 0.0) 
(0.05440968536809253 0.050875933904922344 0.0) 
(0.06296138343741904 0.049380316050140954 0.0) 
(0.07183638578632758 0.04687088265755035 0.0) 
(0.08014901555750632 0.04585103911703321 0.0) 
(0.08594407803899849 0.036037852738106085 0.0) 
(0.016237364386236925 0.024481943874140977 0.0) 
(0.014917206257058184 0.03608776889263682 0.0) 
(0.02478123573778985 0.03986955665268259 0.0) 
(0.03515378743511006 0.04172532247687991 0.0) 
(0.04519112572521955 0.04276159514909656 0.0) 
(0.05513280711104134 0.04273640442380515 0.0) 
(0.0651923130304464 0.04164573808728139 0.0) 
(0.0755697815204454 0.0396884617265865 0.0) 
(0.08543925484121878 0.0356939321861537 0.0) 
(0.08390221483369331 0.024330933268127273 0.0) 
(0.011760745845415792 0.013199774811746813 0.0) 
(0.011057638736099447 0.02442400877216871 0.0) 
(0.021281736242415434 0.02848596675134533 0.0) 
(0.03309173863351787 0.030332458460407496 0.0) 
(0.0444992969801948 0.031086854536961046 0.0) 
(0.05575807898541718 0.031056154675615233 0.0) 
(0.06715971919855852 0.03023443771539174 0.0) 
(0.07893618718656137 0.028301144802857177 0.0) 
(0.08905292882257416 0.024221559639437173 0.0) 
(0.08833833531016669 0.013140162505415408 0.0) 
(0.01174769647393472 0.0073529151167028755 0.0) 
(0.008380967414887558 0.013896069596044724 0.0) 
(0.018924969680682743 0.017092327595873136 0.0) 
(0.031528144202753475 0.018474313279445678 0.0) 
(0.04395305459483675 0.018995001949834136 0.0) 
(0.056226313438546165 0.018969147518521905 0.0) 
(0.06863059324202592 0.018396386989061864 0.0) 
(0.08118084020175426 0.016977238269964088 0.0) 
(0.09166394271607149 0.013790498247823586 0.0) 
(0.08821435113032833 0.007333756389080488 0.0) 
(0.01187831373890076 0.002347611132845231 0.0) 
(0.0074882626391747234 0.004571778535365953 0.0) 
(0.017786703083491284 0.005687053402255768 0.0) 
(0.030725432422132097 0.0062155883313294216 0.0) 
(0.04365261479054167 0.006401821719949925 0.0) 
(0.056466206822564556 0.006386429040930758 0.0) 
(0.06936995635910743 0.006172602173828671 0.0) 
(0.08226705129874107 0.005627713900123273 0.0) 
(0.09252591183541617 0.004522958928559866 0.0) 
(0.08813986827241553 0.0023287156343406354 0.0) 
(0.011912554989059628 -0.002286677083016906 0.0) 
(0.007488328647527145 -0.0045569578439963255 0.0) 
(0.017789059153361028 -0.005698864984247694 0.0) 
(0.030724176484874823 -0.006234854062215502 0.0) 
(0.04364235873191263 -0.0064305236814790395 0.0) 
(0.0564462679924728 -0.006434934527879313 0.0) 
(0.06934388756091305 -0.006246806870012996 0.0) 
(0.08224276297132839 -0.005716252301752119 0.0) 
(0.0925158929489817 -0.004582377297526865 0.0) 
(0.08810173713236426 -0.0023100292196537664 0.0) 
(0.011788233328503572 -0.007295275163154483 0.0) 
(0.008391514060375397 -0.01389004453451161 0.0) 
(0.01893955468804416 -0.017098618724731767 0.0) 
(0.031525707982377034 -0.01847570066283781 0.0) 
(0.04392240837128903 -0.01900406828626232 0.0) 
(0.05616547702405992 -0.019000084387329547 0.0) 
(0.0685465642556549 -0.018463145495955565 0.0) 
(0.08110091120162372 -0.017077962932184255 0.0) 
(0.09161235866400258 -0.013884499299645053 0.0) 
(0.08819019638487861 -0.007330472786660888 0.0) 
(0.01190205474743737 -0.013175189465247936 0.0) 
(0.011130118287954103 -0.024440415918386013 0.0) 
(0.02131322504369912 -0.02845833965705013 0.0) 
(0.033088799090334256 -0.030294452875410237 0.0) 
(0.044449711110188764 -0.03105474991871976 0.0) 
(0.0556557221261111 -0.031046458031539527 0.0) 
(0.06701062474903392 -0.03026952356764885 0.0) 
(0.07876681953339179 -0.028416073924834084 0.0) 
(0.0889488986211431 -0.02437584924483521 0.0) 
(0.08814010592999975 -0.013195628879794972 0.0) 
(0.016767752787110488 -0.024602384299210255 0.0) 
(0.014986232535043633 -0.03604938987386946 0.0) 
(0.024816880779549317 -0.03978590392232015 0.0) 
(0.03514000083303745 -0.04162540499298474 0.0) 
(0.04511912136542399 -0.042665916524670174 0.0) 
(0.054997408974926804 -0.0426632757465829 0.0) 
(0.06498337522710265 -0.041608460739970904 0.0) 
(0.07531539912197431 -0.0397449370369725 0.0) 
(0.08513107262481505 -0.03599285367839415 0.0) 
(0.08379099378432955 -0.024472188423246437 0.0) 
(0.015108511925832842 -0.03688561972859594 0.0) 
(0.02014108644237984 -0.046169941836926756 0.0) 
(0.028625635780140053 -0.04675886658167431 0.0) 
(0.03736569173324608 -0.049277488252997444 0.0) 
(0.045836728943915196 -0.05074766378086856 0.0) 
(0.05426882902171664 -0.05074660345908207 0.0) 
(0.06274272320224301 -0.04927547457367572 0.0) 
(0.07148011084739843 -0.04672919792570777 0.0) 
(0.08001915708242442 -0.046124292120017306 0.0) 
(0.08491526221563896 -0.03665599311460869 0.0) 
)
;

boundaryField
{
	bottom
	{
		type	solidTraction;
		value	nonuniform List<vector>
10
(
(0.016167887006875246 0.04258257737631983 0.0) 
(0.02266716589142888 0.0491515272378731 0.0) 
(0.03055761651843075 0.05110334126340838 0.0) 
(0.03847984524773888 0.05308978047651745 0.0) 
(0.046279895250816286 0.054650985450334345 0.0) 
(0.05405492529491472 0.054639135185978537 0.0) 
(0.06190686610699773 0.053075352486229826 0.0) 
(0.06987341021204979 0.05106314139020095 0.0) 
(0.07788552550049282 0.04872070127284218 0.0) 
(0.08503558911240124 0.04178281181204591 0.0) 
)
;
	}
	top
	{
		type	solidTraction;
		value	nonuniform List<vector>
10
(
(0.01605598523969237 -0.04273855908359805 0.0) 
(0.02264450344196851 -0.04909987616532353 0.0) 
(0.030546600580489473 -0.05096104787221824 0.0) 
(0.03843415278863467 -0.05291774590775663 0.0) 
(0.04619347205657318 -0.054481684682182396 0.0) 
(0.05390694622985308 -0.05448242991865553 0.0) 
(0.06166578654357519 -0.05291651066846184 0.0) 
(0.0695626135549031 -0.05093829578450736 0.0) 
(0.0774292297878276 -0.049007494209063356 0.0) 
(0.08389887438635181 -0.04249347076071122 0.0) 
)
;
	}
	left
	{
		type	fixedValue;
		value	uniform (0.0 0.0 0.0);
	}
	right
	{
		type	fixedValue;
		value	uniform (0.1 0.0 0.0);
	}
	frontAndBackPlanes
	{
		type	empty;
	}
}
