/*
 _____     _____     _____ _____ _____ _____    |  High-order Python FOAM
|  |  |___|  _  |_ _|   __|     |  _  |     |   |  Python Version: 3.10
|     | . |   __| | |   __|  |  |     | | | |   |  Code Version: 0.0
|__|__|___|__|  |_  |__|  |_____|__|__|_|_|_|   |  License: GPLv3
                |___|
*/
FoamFile
{
    version     2.0;
    format      ascii;
    class       volScalarField;
    location    "90.0";
    object     pCorr;
}

dimensions      [0 0 0 1 0 0 0]; 

internalField   nonuniform List<scalar>
100
(
-677.7436396420001 
-671.9291527565732 
-186.2772687997988 
-69.80464748725045 
-284.9017291600604 
-283.68371727979905 
-83.68245591822236 
-208.17256519711265 
-515.176717856123 
-759.3192159284354 
2570.6028921774428 
-535.7958445175321 
26.155952377849587 
447.16353006297044 
396.4525181382013 
394.8108627369923 
440.7073323972617 
41.30554608184407 
-510.57934666668325 
2529.157638215351 
2290.898225133976 
-855.5461333352562 
-431.4767308473974 
157.47851529833565 
161.77323073411355 
160.87151721449692 
156.62610081887053 
-428.2202444642001 
-852.0887746278672 
2235.6194213440863 
2496.381540876415 
-1134.9491947136619 
-635.252617277091 
18.321759247284007 
55.13190859847838 
54.94348135088468 
18.397392493933097 
-634.571779024919 
-1140.7884859358073 
2460.7062272428343 
2640.6118269164135 
-1124.7921466140713 
-634.4177705972061 
55.08659484129644 
103.53599361177221 
103.46195180518005 
55.46687378706745 
-633.6099390822278 
-1129.052215176125 
2610.8852828771487 
2647.0602498602916 
-1127.304949693889 
-636.3874378977616 
54.63411494664189 
103.49967228378739 
103.24096730369907 
55.073417016540475 
-634.9544190114196 
-1130.6791326145997 
2621.3920713933903 
2517.03940002458 
-1146.963033333606 
-643.1035160771762 
17.422467268022547 
54.790172281226035 
54.36035904039395 
18.060226097123564 
-638.6959265420504 
-1144.715354673258 
2490.3048007150696 
2333.76924287001 
-876.1419089810156 
-448.4442716304577 
153.24394385600678 
158.62314769360395 
157.72648333383745 
155.4842451028077 
-434.1496769111554 
-864.4452915773763 
2287.564196135976 
2661.283582054652 
-566.8922719026087 
7.648692418610027 
439.1862439272384 
388.8084390207698 
387.6541723297107 
441.63109139670905 
25.436116458306472 
-540.0703083720011 
2563.7611122908074 
-707.8593670803452 
-658.9555440265981 
-186.70411998351997 
-62.36476789025859 
-281.464926917986 
-283.08342439113306 
-64.79359407314165 
-184.6262750470422 
-669.1286649808416 
-684.1856615394629 
)
;

boundaryField
{
	bottom
	{
		type	fixedValue;
		value	uniform 0.0;
	}
	top
	{
		type	fixedValue;
		value	uniform 0.0;
	}
	left
	{
		type	zeroGradient;
	}
	right
	{
		type	zeroGradient;
	}
	frontAndBackPlanes
	{
		type	empty;
	}
}
