/*
 _____     _____     _____ _____ _____ _____    |  High-order Python FOAM
|  |  |___|  _  |_ _|   __|     |  _  |     |   |  Python Version: 3.10
|     | . |   __| | |   __|  |  |     | | | |   |  Code Version: 0.0
|__|__|___|__|  |_  |__|  |_____|__|__|_|_|_|   |  License: GPLv3
                |___|
*/
FoamFile
{
    version     2.0;
    format      ascii;
    class       volScalarField;
    location    "100.0";
    object     pCorr;
}

dimensions      [0 0 0 1 0 0 0]; 

internalField   nonuniform List<scalar>
100
(
-576.7952676706476 
-453.92110781573786 
-141.35062622461342 
-50.278012178758225 
-207.4560291627024 
-205.56695277907548 
-60.802947378906225 
-160.393323114911 
-331.1994187926031 
-638.6734272119621 
2036.1190444496706 
-439.9362113100012 
-2.643546826616784 
323.39849601116845 
290.29154759640386 
289.5204105982811 
318.8573313516046 
8.535985159485493 
-420.74430225458804 
2002.3116552092752 
1761.512634967233 
-704.0078733933915 
-347.9052781438895 
113.98160401843876 
109.29652014494332 
108.85409744277982 
113.8182667255847 
-344.73136133273823 
-700.8433967493922 
1714.9203786400867 
1925.0285565187962 
-927.2956391318207 
-491.6985976828908 
19.141005642357456 
29.163527886382823 
29.118916124388647 
19.569194591891993 
-490.1513736852794 
-930.5790848939544 
1894.276206210085 
2041.5129014729243 
-915.6941810788996 
-484.2468654348264 
53.11873888244392 
67.4124998888823 
67.34772288638881 
53.581873905752786 
-482.7433397951231 
-917.7715428239476 
2016.180147049105 
2046.525378318698 
-917.8021633558621 
-485.7602241634093 
52.87747476329193 
67.4619236207959 
67.18704313467154 
53.19600238398929 
-484.0491098824298 
-919.4511619461086 
2024.6792857559483 
1941.0465035692594 
-937.5233065576942 
-497.79975507795666 
18.82609647882248 
29.09969693207111 
28.631360366568135 
19.13152697939093 
-493.89439417222843 
-934.5347686868778 
1918.3335219117396 
1794.8107959122824 
-721.2734033085976 
-361.3591708439078 
111.07245835737201 
106.95704713718209 
106.07716131764829 
112.5356553067894 
-349.5918821232545 
-710.6753531053704 
1757.0064726945448 
2109.8076152605668 
-465.49317503487885 
-17.624973965149174 
317.26735158123785 
284.19827845339074 
283.14946768028875 
318.9349816593008 
-3.2201885090401188 
-443.08055549996635 
2029.9528435785662 
-602.1629743140659 
-443.5362112024881 
-141.67664669143343 
-43.77271900141811 
-204.40060586737957 
-205.89671110207843 
-46.03431684261622 
-139.9175702764048 
-451.37646232013634 
-581.7053085059081 
)
;

boundaryField
{
	bottom
	{
		type	fixedValue;
		value	uniform 0.0;
	}
	top
	{
		type	fixedValue;
		value	uniform 0.0;
	}
	left
	{
		type	zeroGradient;
	}
	right
	{
		type	zeroGradient;
	}
	frontAndBackPlanes
	{
		type	empty;
	}
}
