/*
 _____     _____     _____ _____ _____ _____    |  High-order Python FOAM
|  |  |___|  _  |_ _|   __|     |  _  |     |   |  Python Version: 3.10
|     | . |   __| | |   __|  |  |     | | | |   |  Code Version: 0.0
|__|__|___|__|  |_  |__|  |_____|__|__|_|_|_|   |  License: GPLv3
                |___|
*/
FoamFile
{
    version     2.0;
    format      ascii;
    class       volScalarField;
    location    "73.0";
    object     p;
}

dimensions      [0 0 0 1 0 0 0]; 

internalField   nonuniform List<scalar>
100
(
397387.1879346695 
-140547.1160508491 
-200419.98397045967 
-151603.1934962499 
-130965.68663904737 
-131232.82553387666 
-151841.19551335165 
-198128.36725779955 
-113545.36765728203 
374808.4354114077 
1316117.1437753653 
387559.626823374 
154510.68929313356 
174132.87484492923 
198132.76248230043 
198469.85658827782 
175993.00844973672 
161713.8253769165 
391762.5887347715 
1304766.0037149568 
1431106.0126265632 
524047.2839788336 
216484.7012680846 
206851.26977606906 
224037.26081390097 
224286.55136116213 
208101.53454070387 
218635.8924796372 
524894.8479438458 
1424660.1711146282 
1593109.5050108924 
588454.2728158035 
266520.9700125499 
237530.601217593 
247383.02637329203 
247441.37043113483 
237783.77114136436 
266731.1108637675 
587333.5394238294 
1591112.270157046 
1673045.2233795223 
640832.5951908404 
301930.7020920735 
266346.17714818276 
272128.69520024885 
272072.3299613473 
266212.04228066775 
301558.240148675 
639873.9123037512 
1671268.5230689493 
1675004.6056716596 
640772.4918943174 
301521.76887979393 
266000.0399033289 
271877.1058938436 
271810.8012158508 
265871.69784423 
301116.55893164367 
639635.3805409388 
1672888.2600954126 
1599119.6126257589 
588314.3084358817 
265108.4512853576 
236564.12495378611 
246668.01909132366 
246684.20221522546 
236650.0423489072 
265011.2298177079 
586716.2066107073 
1595948.4759315243 
1443095.3551741894 
523136.45750093856 
213658.79316998922 
205206.4272629508 
222913.96432748556 
223062.0530625308 
205841.45382040928 
214814.51345533802 
521841.9778358923 
1434032.5913799321 
1333730.4268902577 
384775.9384788571 
151769.26996851206 
172324.1217745586 
196960.04540755192 
197171.08759085438 
173424.53704685008 
153641.03765358403 
386079.2990961749 
1315763.7619042601 
395613.7865159431 
-137082.23407038217 
-200643.80705612956 
-151043.2519713709 
-130192.21007672804 
-130327.05377128403 
-151378.7034303207 
-200653.46522830616 
-140665.02348682084 
396287.4958373865 
)
;

boundaryField
{
	bottom
	{
		type	pressureTraction;
	}
	top
	{
		type	pressureTraction;
	}
	left
	{
		type	fixedValueFromZeroGrad;
	}
	right
	{
		type	fixedValueFromZeroGrad;
	}
	frontAndBackPlanes
	{
		type	empty;
	}
}
