/*
 _____     _____     _____ _____ _____ _____    |  High-order Python FOAM
|  |  |___|  _  |_ _|   __|     |  _  |     |   |  Python Version: 3.10
|     | . |   __| | |   __|  |  |     | | | |   |  Code Version: 0.0
|__|__|___|__|  |_  |__|  |_____|__|__|_|_|_|   |  License: GPLv3
                |___|
*/
FoamFile
{
    version     2.0;
    format      ascii;
    class       volScalarField;
    location    "73.0";
    object     pCorr;
}

dimensions      [0 0 0 1 0 0 0]; 

internalField   nonuniform List<scalar>
100
(
-824.6771120522028 
-1298.407014082305 
-337.8501132142378 
-126.24076844642269 
-465.005562578773 
-466.33629379239557 
-147.2735682374239 
-362.20053010181294 
-1065.579478058157 
-954.3442499039492 
3827.8356358175715 
-751.764497590741 
90.48823980514891 
766.2015400180958 
687.895920098083 
683.7431660013959 
755.6802472121803 
117.16188300931283 
-711.8277574914902 
3767.862839344243 
3587.8862193333352 
-1161.636501420527 
-631.946985330685 
265.16332607293634 
317.7263841565661 
315.3837283767557 
262.31365847952594 
-628.3080960522138 
-1156.9442678659686 
3516.4393725475816 
3895.7160246673448 
-1548.8265012743138 
-992.0122018031461 
-6.263112326959398 
129.54269307100967 
128.6593150897224 
-7.839092475807476 
-994.2675356173718 
-1560.9220860951425 
3851.9505202499713 
4108.487899922085 
-1541.7290595603122 
-1020.1621915587757 
18.284841688043368 
186.84338603687146 
186.4830660289639 
17.683075521351487 
-1022.165214618067 
-1551.8143053517867 
4070.8291289804747 
4118.32021621013 
-1544.987544217424 
-1023.185009160205 
17.203276614097188 
186.53795264241174 
186.2128677644269 
17.479971899040287 
-1023.3363377582004 
-1553.1278282982175 
4085.458434788213 
3927.0683628964866 
-1563.7783409837248 
-1003.8271295297315 
-8.985107934619043 
128.43487539622205 
128.20199611363054 
-7.545465215122241 
-998.9095063267083 
-1564.4762908019366 
3892.7203295552713 
3652.8407072609025 
-1188.217525548542 
-656.7140788897748 
257.37615511778876 
312.9205002331953 
312.3197124583608 
261.91715060831433 
-637.3148038079693 
-1175.6904104218897 
3588.59422968963 
3954.586495116981 
-793.9056715972622 
64.3722060513425 
753.8423260923586 
677.3788003242668 
676.4045101815518 
758.7847929479938 
89.47091322581831 
-758.994100605022 
3819.4372583384343 
-863.451847059606 
-1279.7851488817132 
-338.8189967008165 
-117.50152999931314 
-460.4540574189879 
-461.92735395003024 
-119.66817094484428 
-336.0804450597493 
-1295.7250005664218 
-834.6813427492809 
)
;

boundaryField
{
	bottom
	{
		type	fixedValue;
		value	uniform 0.0;
	}
	top
	{
		type	fixedValue;
		value	uniform 0.0;
	}
	left
	{
		type	zeroGradient;
	}
	right
	{
		type	zeroGradient;
	}
	frontAndBackPlanes
	{
		type	empty;
	}
}
