/*
 _____     _____     _____ _____ _____ _____    |  High-order Python FOAM
|  |  |___|  _  |_ _|   __|     |  _  |     |   |  Python Version: 3.10
|     | . |   __| | |   __|  |  |     | | | |   |  Code Version: 0.0
|__|__|___|__|  |_  |__|  |_____|__|__|_|_|_|   |  License: GPLv3
                |___|
*/
FoamFile
{
    version     2.0;
    format      ascii;
    class       volScalarField;
    location    "92.0";
    object     p;
}

dimensions      [0 0 0 1 0 0 0]; 

internalField   nonuniform List<scalar>
100
(
383259.3316061068 
-157689.2440777232 
-204963.52660625216 
-153319.55204469882 
-137714.50883701755 
-137975.7700496412 
-153875.3841399334 
-203113.55043409264 
-127145.51736711194 
358782.567423015 
1374105.7344594828 
375786.365497409 
155503.50256955955 
184917.7252343733 
207710.8715662173 
207998.91034109303 
186623.97925595645 
163074.49765771627 
380575.55308994337 
1361833.712799762 
1483996.199657633 
505469.3447602873 
206851.28038206784 
210641.34193355034 
228205.85260016948 
228427.9557965116 
211861.08988823686 
209066.41737597962 
506390.6085570971 
1476375.1017833902 
1650644.3511756302 
563738.6785117775 
251906.16898034705 
237776.7240265648 
248989.44517458696 
249039.75959120752 
238020.66115569 
252109.13426230068 
562461.3867565304 
1647904.495162665 
1733814.5023973323 
616287.5089327686 
287149.294441015 
267246.84103766416 
274763.08444819757 
274703.7768232932 
267114.31110250857 
286773.7033046932 
615206.3079855437 
1731411.1311819835 
1735921.0753892744 
616173.8318050196 
286695.11652729334 
266887.5940336219 
274508.7833711133 
274437.3758041612 
266767.4526439055 
286307.3478471064 
614938.9855423837 
1733261.6914115162 
1657125.420169507 
563346.7561375943 
250315.01166285324 
236780.21307083423 
248262.06259493157 
248271.42523797601 
236884.316225002 
250306.6490769377 
561772.0113453259 
1653387.940418104 
1496962.1425403934 
504120.26447067276 
203644.95429669306 
208890.31661373004 
227009.48691114548 
227142.15832580096 
209584.04416723884 
205111.24298302594 
503057.3018570961 
1486887.2303376521 
1393711.8403125019 
372327.80450308055 
152353.6086044563 
182925.03034137937 
206369.93769926572 
206559.58385713334 
184088.98535620666 
154618.02101541654 
374204.0705783044 
1373611.3040693637 
380846.2856911888 
-153935.7972858712 
-205198.84545167463 
-152607.4871811808 
-136868.47319613618 
-137033.7296756045 
-152988.21737451764 
-205163.9547660284 
-157753.3354198147 
382011.25571958075 
)
;

boundaryField
{
	bottom
	{
		type	pressureTraction;
	}
	top
	{
		type	pressureTraction;
	}
	left
	{
		type	fixedValueFromZeroGrad;
	}
	right
	{
		type	fixedValueFromZeroGrad;
	}
	frontAndBackPlanes
	{
		type	empty;
	}
}
