/*
 _____     _____     _____ _____ _____ _____    |  High-order Python FOAM
|  |  |___|  _  |_ _|   __|     |  _  |     |   |  Python Version: 3.10
|     | . |   __| | |   __|  |  |     | | | |   |  Code Version: 0.0
|__|__|___|__|  |_  |__|  |_____|__|__|_|_|_|   |  License: GPLv3
                |___|
*/
FoamFile
{
    version     2.0;
    format      ascii;
    class       volVectorField;
    location    "92.0";
    object     U;
}

dimensions      [0 1 0 0 0 0 0]; 

internalField   nonuniform List<vector>
100
(
(0.015149387746308257 0.036697295974829416 0.0) 
(0.02006954802726276 0.046268300500503366 0.0) 
(0.028631674543637516 0.04688308764332803 0.0) 
(0.0373980857192464 0.0494343380695471 0.0) 
(0.04591620499490666 0.05089568598666516 0.0) 
(0.054408571700410864 0.050879401069368786 0.0) 
(0.06296015046973132 0.049382343771505154 0.0) 
(0.07183491939765767 0.04687385306926407 0.0) 
(0.08014363469714209 0.04585674493807691 0.0) 
(0.08592692643970162 0.036016967359851174 0.0) 
(0.0162233608269146 0.02445755763563308 0.0) 
(0.014923306584967936 0.03608659585463853 0.0) 
(0.024780123808994702 0.03987256045358142 0.0) 
(0.035151748372825316 0.041727570182987034 0.0) 
(0.045190381534154375 0.04276370173474655 0.0) 
(0.05513299569525784 0.042738570519406445 0.0) 
(0.06519373752353623 0.04164806545183285 0.0) 
(0.07557029864485892 0.03969149976170102 0.0) 
(0.0854324439796513 0.03569349164184089 0.0) 
(0.08391550226161908 0.024306967412866455 0.0) 
(0.011753854510623085 0.013193424968789221 0.0) 
(0.011062828458376153 0.02442215654151962 0.0) 
(0.021279082756609353 0.028489376014921162 0.0) 
(0.03308806194291286 0.0303364776406767 0.0) 
(0.0444980071581228 0.03109080995978862 0.0) 
(0.05575892582210714 0.031060138745678072 0.0) 
(0.0671629469532479 0.030238531673448997 0.0) 
(0.07893838647508729 0.028304790033585096 0.0) 
(0.08904752426578942 0.0242201014755088 0.0) 
(0.08834493754330842 0.013134032635921144 0.0) 
(0.0117422920938366 0.007348840032264023 0.0) 
(0.008389516126850963 0.01389549270068664 0.0) 
(0.01892207371329998 0.017093969944374406 0.0) 
(0.03152359816628131 0.018476877600442514 0.0) 
(0.04395142411122353 0.018997699752884407 0.0) 
(0.05622760813180054 0.018971862469514957 0.0) 
(0.06863482593373967 0.018399018610954013 0.0) 
(0.08118352617401768 0.016979017194700425 0.0) 
(0.09165534277916093 0.013790084588432247 0.0) 
(0.0882195844659556 0.007329657778890282 0.0) 
(0.01187295692451904 0.00234634651295649 0.0) 
(0.007497813289037251 0.004571401995844034 0.0) 
(0.017784121114231437 0.0056874638203674175 0.0) 
(0.030720617855891776 0.006216300797014125 0.0) 
(0.04365085878488873 0.006402627673302586 0.0) 
(0.056467707229498204 0.006387240200306407 0.0) 
(0.06937455903754594 0.006173330549187099 0.0) 
(0.08226952808324124 0.005628152224865118 0.0) 
(0.09251638957592437 0.0045225992056931305 0.0) 
(0.0881451064118631 0.0023274203106486814 0.0) 
(0.011907164078361277 -0.0022856095056728665 0.0) 
(0.00749790375493758 -0.0045566046120174095 0.0) 
(0.01778647398444046 -0.005699238405001899 0.0) 
(0.03071935619074508 -0.006235533097290585 0.0) 
(0.04364061560054228 -0.0064313058900045406 0.0) 
(0.05644779949426617 -0.006435727978716417 0.0) 
(0.06934853427158522 -0.0062475251214284475 0.0) 
(0.08224527865565374 -0.005716694137658757 0.0) 
(0.09250637300134751 -0.004582088735132782 0.0) 
(0.08810704300943782 -0.0023089730721145073 0.0) 
(0.011782768646991081 -0.007291406344391369 0.0) 
(0.008400139316410427 -0.013889488275372003 0.0) 
(0.018936628260607713 -0.017100227216162424 0.0) 
(0.031521145147910073 -0.018478259297988874 0.0) 
(0.04392082048743318 -0.01900676803569193 0.0) 
(0.05616686517467831 -0.019002805288112948 0.0) 
(0.06855093925301092 -0.018465785032067705 0.0) 
(0.08110373660250951 -0.017079729281976704 0.0) 
(0.09160379301575196 -0.013884086795264287 0.0) 
(0.08819559060126307 -0.0073265536844267076 0.0) 
(0.011895047415187644 -0.013169034806401525 0.0) 
(0.011135324772611182 -0.024438542531364175 0.0) 
(0.021310526108669094 -0.0284618133420273 0.0) 
(0.03308510757438469 -0.03029855034112384 0.0) 
(0.04444850430012983 -0.031058778207347516 0.0) 
(0.05565673168443826 -0.031050503851777902 0.0) 
(0.06701409714831921 -0.030273698592246115 0.0) 
(0.07876935013832058 -0.028419717070490312 0.0) 
(0.08894365335294246 -0.024374238737404234 0.0) 
(0.08814692515691601 -0.013189383866689991 0.0) 
(0.01675281746626771 -0.024577480619741226 0.0) 
(0.014992469497237725 -0.03604838662422651 0.0) 
(0.024815733021181303 -0.03978914491662616 0.0) 
(0.03513798725806401 -0.041627902398991355 0.0) 
(0.045118519426744545 -0.04266824258864197 0.0) 
(0.05499784365151617 -0.04266560757844139 0.0) 
(0.06498519165450004 -0.04161098564818035 0.0) 
(0.07531639171265361 -0.039748265314093124 0.0) 
(0.08512486837244795 -0.03599199380078292 0.0) 
(0.08380488746483748 -0.02444793094297679 0.0) 
(0.015124857829430217 -0.03686172094246222 0.0) 
(0.02014641214846814 -0.046176362722984705 0.0) 
(0.028625817109573293 -0.04676257924342203 0.0) 
(0.03736630502553539 -0.049279579304205366 0.0) 
(0.04583747413256537 -0.05075134383831323 0.0) 
(0.05426796628947675 -0.05075029096586691 0.0) 
(0.06274198583661583 -0.0492775656771519 0.0) 
(0.0714798503538662 -0.04673295705161917 0.0) 
(0.08001362694551643 -0.04613076765948136 0.0) 
(0.08489914715343021 -0.03663293443428189 0.0) 
)
;

boundaryField
{
	bottom
	{
		type	solidTraction;
		value	nonuniform List<vector>
10
(
(0.0161897019683071 0.042561158378380023 0.0) 
(0.022676992528452806 0.04915188065133866 0.0) 
(0.030559359259801556 0.05110764716797582 0.0) 
(0.038481342899804385 0.053092127213410625 0.0) 
(0.04628067999200473 0.05465448866434563 0.0) 
(0.05405354973999836 0.054642767732004494 0.0) 
(0.061904471216167774 0.05307783927708651 0.0) 
(0.06987048379626801 0.05106689694413487 0.0) 
(0.07787520621663732 0.04872117749315172 0.0) 
(0.085012731764928 0.04176396009678884 0.0) 
)
;
	}
	top
	{
		type	solidTraction;
		value	nonuniform List<vector>
10
(
(0.01607832448784021 -0.04271662660986513 0.0) 
(0.022654460743960055 -0.04910033896683129 0.0) 
(0.0305484199466181 -0.05096567960561669 0.0) 
(0.03843578924476696 -0.05292047520626306 0.0) 
(0.046194454685942674 -0.05448554478736279 0.0) 
(0.05390587223685392 -0.054486291123279025 0.0) 
(0.06166406929166987 -0.05291923635676895 0.0) 
(0.0695606975156901 -0.05094294590083525 0.0) 
(0.07741927235986208 -0.04900819611847637 0.0) 
(0.08387692456903041 -0.042472405682674144 0.0) 
)
;
	}
	left
	{
		type	fixedValue;
		value	uniform (0.0 0.0 0.0);
	}
	right
	{
		type	fixedValue;
		value	uniform (0.1 0.0 0.0);
	}
	frontAndBackPlanes
	{
		type	empty;
	}
}
