/*
 _____     _____     _____ _____ _____ _____    |  High-order Python FOAM
|  |  |___|  _  |_ _|   __|     |  _  |     |   |  Python Version: 3.10
|     | . |   __| | |   __|  |  |     | | | |   |  Code Version: 0.0
|__|__|___|__|  |_  |__|  |_____|__|__|_|_|_|   |  License: GPLv3
                |___|
*/
FoamFile
{
    version     2.0;
    format      ascii;
    class       volScalarField;
    location    "17.0";
    object     p;
}

dimensions      [0 0 0 1 0 0 0]; 

internalField   nonuniform List<scalar>
100
(
369565.3635683262 
79784.23510542975 
-92951.30095231828 
-132484.14873726736 
-134456.5701500509 
-134217.50036840394 
-131381.18212167657 
-90844.40394286059 
85667.71928840171 
362559.55271648266 
805746.533462932 
417190.9484149063 
136989.3745215795 
18792.85929392395 
-13900.455209928405 
-13267.150620128661 
20656.05035897698 
139902.56087575527 
417875.47016191814 
801941.9221198964 
899043.393126126 
535068.2519427917 
230987.20542349905 
85674.59463664023 
36087.155836626094 
36527.0013299669 
86894.18480823765 
232354.32697198185 
535463.8616264126 
897969.1926187841 
994868.1544327291 
594912.5821327029 
300251.346791205 
152616.90919745446 
98524.98907659188 
98746.71928715595 
153182.30556448956 
300872.3923006353 
595071.3860750396 
995373.4961448248 
1034408.9525132877 
629545.9257210332 
336215.6955622696 
191538.3402772132 
137490.78867848864 
137574.5105866475 
191755.38127094498 
336456.650737783 
629764.8068543844 
1034888.5003317441 
1035299.6616242229 
629738.6406892929 
336159.6667944491 
191395.53761043388 
137309.00562382946 
137336.9816618086 
191458.26126441272 
336172.8989627765 
629672.5733068455 
1035365.141177734 
997555.1717674821 
595641.3259530033 
300083.58482625085 
152215.99924664322 
97986.0406604064 
98007.60258027696 
152226.83444849006 
299926.704119199 
594900.7864725395 
996948.605711034 
904084.1315893038 
535898.0912587993 
230600.58034350266 
85083.7715464857 
35253.7725526445 
35356.16231797827 
85181.80998799508 
230529.25874463195 
534728.0089160422 
901145.004233257 
811837.7592966233 
417660.7652357152 
136702.49495173834 
18202.348778718686 
-14558.304727095638 
-14451.09431106782 
18604.040644410736 
136755.98517669487 
417155.2565685196 
806276.1862102164 
370124.4191358758 
81495.55842991956 
-92795.82991101572 
-132415.2129640878 
-134497.8045312512 
-134500.7701694833 
-132432.37182690107 
-92702.61459032187 
80056.15334499051 
369500.31332060776 
)
;

boundaryField
{
	bottom
	{
		type	pressureTraction;
	}
	top
	{
		type	pressureTraction;
	}
	left
	{
		type	fixedValueFromZeroGrad;
	}
	right
	{
		type	fixedValueFromZeroGrad;
	}
	frontAndBackPlanes
	{
		type	empty;
	}
}
