/*
 _____     _____     _____ _____ _____ _____    |  High-order Python FOAM
|  |  |___|  _  |_ _|   __|     |  _  |     |   |  Python Version: 3.10
|     | . |   __| | |   __|  |  |     | | | |   |  Code Version: 0.0
|__|__|___|__|  |_  |__|  |_____|__|__|_|_|_|   |  License: GPLv3
                |___|
*/
FoamFile
{
    version     2.0;
    format      ascii;
    class       volVectorField;
    location    "17.0";
    object     U;
}

dimensions      [0 1 0 0 0 0 0]; 

internalField   nonuniform List<vector>
100
(
(0.01737289315401831 0.026620055552972404 0.0) 
(0.021872905189068807 0.04588415848887292 0.0) 
(0.026951817365556675 0.04791402433899098 0.0) 
(0.035248260945316946 0.047515187340975165 0.0) 
(0.04496269464766179 0.04661209759261815 0.0) 
(0.055205551961546806 0.04661529606768841 0.0) 
(0.06491730351165326 0.047497942717174814 0.0) 
(0.07323202529867344 0.047830894310900984 0.0) 
(0.07830183351989566 0.04558491902644521 0.0) 
(0.0832128064697964 0.026477456435352244 0.0) 
(0.011284798461810212 0.017700542841849926 0.0) 
(0.01463015988019405 0.032668147103206764 0.0) 
(0.023368219837913186 0.038225315745058025 0.0) 
(0.033599872997499815 0.03908661295280954 0.0) 
(0.044542654559008084 0.03889832238121011 0.0) 
(0.05562617719098122 0.03888496126076014 0.0) 
(0.06657830651279634 0.03903428330751566 0.0) 
(0.07681453468145533 0.03810582400177474 0.0) 
(0.0855313581956748 0.032496259157075595 0.0) 
(0.08872519290650793 0.01764231362391258 0.0) 
(0.009086783480505727 0.01031896074817886 0.0) 
(0.011174333944546767 0.021529641858731016 0.0) 
(0.019906898879528876 0.02675679228639427 0.0) 
(0.031417552293663255 0.028622644439985922 0.0) 
(0.04379247906404873 0.028991857585672187 0.0) 
(0.05634607108964512 0.02897258689276532 0.0) 
(0.06870844548711948 0.028563530013428734 0.0) 
(0.08018838097991013 0.026663157539913558 0.0) 
(0.0888727043133317 0.021445257288395126 0.0) 
(0.09095457135083936 0.010301687145343645 0.0) 
(0.00903684573673102 0.005672173837963308 0.0) 
(0.009519347699879605 0.012192950305321465 0.0) 
(0.018012728010696494 0.015824940741708052 0.0) 
(0.029942450036698542 0.017445061073997258 0.0) 
(0.043243061461441905 0.017948181864208327 0.0) 
(0.0568506984670736 0.01793217380425202 0.0) 
(0.07013457372027848 0.017400288827936455 0.0) 
(0.08203336524095507 0.015765726154858876 0.0) 
(0.09049927904048177 0.012145197078309392 0.0) 
(0.09092895197344186 0.005660486177927564 0.0) 
(0.00915340378588397 0.0017975114674129188 0.0) 
(0.008983110172827593 0.00396669026014779 0.0) 
(0.01721633738345679 0.005226449170502997 0.0) 
(0.029277115766306892 0.005849857587160791 0.0) 
(0.042975199116964645 0.0060645266142476135 0.0) 
(0.05708367983325921 0.006054159701324433 0.0) 
(0.07076768235302472 0.005821933126042289 0.0) 
(0.08280683626145642 0.005190248808911401 0.0) 
(0.09102301850582152 0.003937911945662238 0.0) 
(0.09084717745933377 0.0017849943400815626 0.0) 
(0.009170144324925921 -0.001776574878644455 0.0) 
(0.008985121028395538 -0.003969577916519546 0.0) 
(0.01721730473174534 -0.0052460136726419256 0.0) 
(0.029274985950079997 -0.005877101420218804 0.0) 
(0.04296880485519625 -0.006101281537204712 0.0) 
(0.05707369790137063 -0.00610639206463941 0.0) 
(0.0707560743726948 -0.0058911455248746025 0.0) 
(0.08279657328330722 -0.005265799046499587 0.0) 
(0.09101872316223089 -0.003992514186432752 0.0) 
(0.09083061171335834 -0.0017919286107114026 0.0) 
(0.009057679053266644 -0.0056553249423064444 0.0) 
(0.009532131081064543 -0.01220440222312748 0.0) 
(0.018019260006934754 -0.01584295773051521 0.0) 
(0.029936661585844168 -0.017464093847300348 0.0) 
(0.04322449933289646 -0.017975758735771126 0.0) 
(0.05682051869492565 -0.01797637874880849 0.0) 
(0.07009812159010266 -0.01746638844074873 0.0) 
(0.08200037448750506 -0.015846570354633136 0.0) 
(0.09047469444688282 -0.012215551662775654 0.0) 
(0.0909268101013279 -0.005673339806536336 0.0) 
(0.00916393307142157 -0.010322062715865069 0.0) 
(0.011224033750203671 -0.02155783580412822 0.0) 
(0.019921576353546473 -0.026762636831852805 0.0) 
(0.03141067337803851 -0.02862650996142285 0.0) 
(0.043764036851085826 -0.02900043377403205 0.0) 
(0.05629671869079832 -0.028997816507733476 0.0) 
(0.06864353684869866 -0.028619616481261934 0.0) 
(0.08012161422700438 -0.026753676887044574 0.0) 
(0.08882692407324247 -0.02154218372312699 0.0) 
(0.09084755706991512 -0.01032784891403261 0.0) 
(0.011555141528470972 -0.017743579836706016 0.0) 
(0.014685504743759419 -0.032677903593980845 0.0) 
(0.02338852889999609 -0.038219929705183085 0.0) 
(0.03359237521153039 -0.0390690391692563 0.0) 
(0.044508872977484 -0.038876385852668206 0.0) 
(0.055564483033208135 -0.03887676218686533 0.0) 
(0.06648863900455816 -0.03906368353287168 0.0) 
(0.07670446246272801 -0.03820378594687182 0.0) 
(0.08539816391490011 -0.032657478037718804 0.0) 
(0.0887178597394408 -0.017709892712228125 0.0) 
(0.017394315965315595 -0.02668559815008468 0.0) 
(0.021929012886980275 -0.045877407571486464 0.0) 
(0.026957707395389233 -0.047901999522966976 0.0) 
(0.035230978758863954 -0.04747621023385108 0.0) 
(0.04492552499263338 -0.04655965093260594 0.0) 
(0.05515054548457626 -0.04656620337054685 0.0) 
(0.06484297641049082 -0.04748741527048383 0.0) 
(0.07311181329080088 -0.04788808093195792 0.0) 
(0.07816285299883007 -0.045846730205481995 0.0) 
(0.08263650052519729 -0.026612349375692103 0.0) 
)
;

boundaryField
{
	bottom
	{
		type	solidTraction;
		value	nonuniform List<vector>
10
(
(0.02038827665102735 0.03246421288626352 0.0) 
(0.02507511584721386 0.047323377982017294 0.0) 
(0.029494882536093114 0.052389808070670424 0.0) 
(0.03638913269124224 0.051576646128332786 0.0) 
(0.04529740305208124 0.050528225610013466 0.0) 
(0.05486955759816592 0.05053320993276998 0.0) 
(0.06377612803325139 0.05156515112688563 0.0) 
(0.07068677595876945 0.052280945362561004 0.0) 
(0.07526591300156887 0.047073238550146244 0.0) 
(0.08030059596059619 0.032268054605845406 0.0) 
)
;
	}
	top
	{
		type	solidTraction;
		value	nonuniform List<vector>
10
(
(0.020371831142526147 -0.03252786815608012 0.0) 
(0.025086223139797817 -0.047329663573979615 0.0) 
(0.029499739507377533 -0.05236934536286779 0.0) 
(0.0363677459575103 -0.05153048795910493 0.0) 
(0.04525908675382984 -0.05046380122454192 0.0) 
(0.054817380489673835 -0.05047155954027485 0.0) 
(0.06370213106064493 -0.051542028177159874 0.0) 
(0.07056702638128759 -0.05235815139630926 0.0) 
(0.07496382044571451 -0.04728729059141108 0.0) 
(0.07962706307149647 -0.032446399794866805 0.0) 
)
;
	}
	left
	{
		type	fixedValue;
		value	uniform (0.0 0.0 0.0);
	}
	right
	{
		type	fixedValue;
		value	uniform (0.1 0.0 0.0);
	}
	frontAndBackPlanes
	{
		type	empty;
	}
}
