/*
 _____     _____     _____ _____ _____ _____    |  High-order Python FOAM
|  |  |___|  _  |_ _|   __|     |  _  |     |   |  Python Version: 3.10
|     | . |   __| | |   __|  |  |     | | | |   |  Code Version: 0.0
|__|__|___|__|  |_  |__|  |_____|__|__|_|_|_|   |  License: GPLv3
                |___|
*/
FoamFile
{
    version     2.0;
    format      ascii;
    class       volScalarField;
    location    "64.0";
    object     pCorr;
}

dimensions      [0 0 0 1 0 0 0]; 

internalField   nonuniform List<scalar>
100
(
-850.0797730335115 
-1831.4288679932092 
-498.68741396307337 
-168.86264416131982 
-560.7880637479595 
-564.3333290765635 
-193.87265633293137 
-521.4182814127962 
-1548.9347391142837 
-1014.9295791753038 
4748.636804813136 
-888.9155935590156 
138.2949330129014 
1045.269165580388 
984.7856142534674 
978.8090936632788 
1032.8292932190986 
174.89842836220575 
-838.7712952162052 
4674.462422737925 
4584.753891335818 
-1302.2973757653783 
-735.5038447963834 
408.3683081232771 
535.9805096490244 
532.4673166553696 
404.0764186823183 
-731.2812046582069 
-1296.4657122037495 
4504.464837469967 
4992.005543716441 
-1720.0206199829115 
-1190.7784517077084 
39.70241138102979 
284.8744169409085 
283.1969061673714 
36.278457607862066 
-1195.74550642167 
-1736.6122552449242 
4944.58666359575 
5269.723373413784 
-1699.7522037831798 
-1237.6578007163982 
47.47542063928898 
338.5472654891869 
337.67690576981056 
45.35589979108107 
-1242.64998812143 
-1714.4180795949765 
5227.897654943463 
5281.82181509608 
-1703.5184081368484 
-1241.5286018146016 
45.75005291662545 
337.9158283168912 
337.35798343399046 
45.331750781269136 
-1243.6603009447672 
-1715.5463776018507 
5244.914786852032 
5030.387403874139 
-1736.502116136713 
-1205.5928034000224 
35.092285527781996 
282.9094737919126 
282.8364800670906 
36.97062281183573 
-1200.8927852887746 
-1740.09106144185 
4991.758752571108 
4664.49051158315 
-1332.2022286095448 
-765.8867543241921 
397.3743391127721 
529.9054225831298 
529.7782584133838 
403.91900806139176 
-743.4611645814618 
-1320.2500727164058 
4588.657453431612 
4897.982766160091 
-937.7496313922597 
106.82769146334384 
1029.449490819141 
972.5877350935002 
972.1634405664404 
1036.839053525497 
136.76531715744724 
-898.7280427748037 
4738.992987267941 
-893.1457101548582 
-1809.3523983344492 
-500.5792906729442 
-159.99613801375995 
-555.2577898665038 
-556.3049624526508 
-161.45719120371098 
-497.3211818154977 
-1829.4342188887622 
-862.4404640951061 
)
;

boundaryField
{
	bottom
	{
		type	fixedValue;
		value	uniform 0.0;
	}
	top
	{
		type	fixedValue;
		value	uniform 0.0;
	}
	left
	{
		type	zeroGradient;
	}
	right
	{
		type	zeroGradient;
	}
	frontAndBackPlanes
	{
		type	empty;
	}
}
