/*
 _____     _____     _____ _____ _____ _____    |  High-order Python FOAM
|  |  |___|  _  |_ _|   __|     |  _  |     |   |  Python Version: 3.10
|     | . |   __| | |   __|  |  |     | | | |   |  Code Version: 0.0
|__|__|___|__|  |_  |__|  |_____|__|__|_|_|_|   |  License: GPLv3
                |___|
*/
FoamFile
{
    version     2.0;
    format      ascii;
    class       volVectorField;
    location    "64.0";
    object     U;
}

dimensions      [0 1 0 0 0 0 0]; 

internalField   nonuniform List<vector>
100
(
(0.015809385464438375 0.03564480807402776 0.0) 
(0.020344275274157584 0.04657308998163817 0.0) 
(0.028600021165641646 0.04708846548203516 0.0) 
(0.037391504919741386 0.049494627290950714 0.0) 
(0.04592860584206297 0.050985507610679784 0.0) 
(0.054371748193036536 0.050973696882766206 0.0) 
(0.06293494404446337 0.04945228122527423 0.0) 
(0.07181006811587436 0.04705751819791916 0.0) 
(0.07987073668747588 0.046147372896650066 0.0) 
(0.08521220340973523 0.03506789492220134 0.0) 
(0.015622857520078878 0.023461252940249706 0.0) 
(0.015143990363136217 0.03600985529969654 0.0) 
(0.024730140464744938 0.04000488851104141 0.0) 
(0.03506453857926129 0.04180834003994899 0.0) 
(0.04515819451551458 0.04281420350975405 0.0) 
(0.05514142101154151 0.042791162672403495 0.0) 
(0.06525431339524097 0.04173134316276229 0.0) 
(0.07559397848376335 0.03982533468702567 0.0) 
(0.08518054693921001 0.035647883618998656 0.0) 
(0.0844873075352468 0.023326451233466407 0.0) 
(0.01145567158979527 0.012909046550237507 0.0) 
(0.011268861227367262 0.024330675629437547 0.0) 
(0.021175041085472367 0.028630629056885126 0.0) 
(0.03293711198020411 0.03050350659236558 0.0) 
(0.04444299481830587 0.031242681351039855 0.0) 
(0.05579549503561849 0.03121304311931993 0.0) 
(0.06729463459532731 0.03040861542431566 0.0) 
(0.07902253073310374 0.028456317176609076 0.0) 
(0.08883127135277752 0.02414543334207727 0.0) 
(0.08863197221163978 0.01285802617621264 0.0) 
(0.011494307246623522 0.007177734573790572 0.0) 
(0.008742938586109103 0.013865110353549403 0.0) 
(0.01882206694624688 0.0171652459937621 0.0) 
(0.031338262995947844 0.0185878847264859 0.0) 
(0.04388070652868838 0.019109309159464623 0.0) 
(0.05628465913918094 0.01908413533265858 0.0) 
(0.06880714745212582 0.018512844420818766 0.0) 
(0.08127425246270178 0.01705625233117745 0.0) 
(0.0912984456174251 0.013766914380841813 0.0) 
(0.08846141536694553 0.007158042946949793 0.0) 
(0.011630826054760351 0.0022932629364485328 0.0) 
(0.007897935254129537 0.004555011826526824 0.0) 
(0.017702786943199232 0.005706105442875965 0.0) 
(0.030525346280680928 0.006248161202935119 0.0) 
(0.043574185582246135 0.0064369844561729195 0.0) 
(0.05653418942202297 0.006421751500988318 0.0) 
(0.0695613287598797 0.006205770983701025 0.0) 
(0.08234626076635591 0.005648017447457133 0.0) 
(0.09211625146149882 0.004507175148896033 0.0) 
(0.0883825991674098 0.0022736614332572597 0.0) 
(0.011663564371943567 -0.002240530986152773 0.0) 
(0.007898980141092068 -0.004541832044564901 0.0) 
(0.01770509397247931 -0.005717126122005159 0.0) 
(0.03052391126333725 -0.006266781972810768 0.0) 
(0.0435644612176751 -0.006465567088517997 0.0) 
(0.056515563050788566 -0.006470536717862607 0.0) 
(0.06953717184649207 -0.0062805377382721276 0.0) 
(0.08232374886655457 -0.005737396552085756 0.0) 
(0.09210657301490816 -0.004569726043807698 0.0) 
(0.08834725380941434 -0.002264068565699358 0.0) 
(0.011531932708522158 -0.007128574362422699 0.0) 
(0.00875638345960655 -0.013860524140892679 0.0) 
(0.018835652883690875 -0.01717094811672485 0.0) 
(0.03133527479032427 -0.018589890101361934 0.0) 
(0.04385182804208511 -0.019119485345138566 0.0) 
(0.05622783507586552 -0.01911647825079961 0.0) 
(0.06872944265610907 -0.01858087861669996 0.0) 
(0.08120070790306033 -0.017156861231761352 0.0) 
(0.09124915734200001 -0.013860748268392684 0.0) 
(0.08844363673949959 -0.007161524024816985 0.0) 
(0.011591051884549721 -0.012891715690028763 0.0) 
(0.011341410349098864 -0.024346726261467454 0.0) 
(0.021204789754290472 -0.028606432358996087 0.0) 
(0.03293377898584597 -0.030469831321117278 0.0) 
(0.044396903162866576 -0.03121478465398042 0.0) 
(0.05570025175336247 -0.03120726370805632 0.0) 
(0.06715670766916929 -0.030448212400762367 0.0) 
(0.0788683535696913 -0.028571290019532576 0.0) 
(0.08873511223592087 -0.024293016934285986 0.0) 
(0.08844379364462403 -0.012908682548638365 0.0) 
(0.01611308325316876 -0.023561400749052698 0.0) 
(0.015217337061308463 -0.03597852587628894 0.0) 
(0.024764447902405316 -0.03993202218898641 0.0) 
(0.03505215109873772 -0.04171997902033857 0.0) 
(0.04509240105062636 -0.042728642306506456 0.0) 
(0.05501691216882591 -0.042726112032618356 0.0) 
(0.06506308815324716 -0.04170402146960071 0.0) 
(0.07536130760983277 -0.039894880827967785 0.0) 
(0.08489974532597967 -0.03592855310397024 0.0) 
(0.08440103603351393 -0.023455980949958013 0.0) 
(0.015798000056234534 -0.035788093551859045 0.0) 
(0.0204176673534373 -0.04649236318114793 0.0) 
(0.028597921136593686 -0.04698113820414785 0.0) 
(0.037363567277750524 -0.04935601677459891 0.0) 
(0.04585727923973627 -0.050855059403307604 0.0) 
(0.054242746482216386 -0.05085391133348608 0.0) 
(0.06273956250024963 -0.04935346556231965 0.0) 
(0.07150440309297824 -0.046953366611208094 0.0) 
(0.07973374250142598 -0.04644993451553034 0.0) 
(0.08423318998926228 -0.035592557136418984 0.0) 
)
;

boundaryField
{
	bottom
	{
		type	solidTraction;
		value	nonuniform List<vector>
10
(
(0.017115086341469566 0.04159134857736427 0.0) 
(0.023122587527048412 0.04920244400302139 0.0) 
(0.030607707666136054 0.05135737099862913 0.0) 
(0.0385049439834198 0.05318856042118058 0.0) 
(0.04629797457248268 0.054751738797348966 0.0) 
(0.054009557973646156 0.054744781387803344 0.0) 
(0.06184158776952984 0.0531773328074738 0.0) 
(0.06977340726415736 0.051291735810650385 0.0) 
(0.07740755641373 0.04877950551592842 0.0) 
(0.08403682602464266 0.0409025716839915 0.0) 
)
;
	}
	top
	{
		type	solidTraction;
		value	nonuniform List<vector>
10
(
(0.017023895422294367 -0.04172634010068033 0.0) 
(0.023105924172976078 -0.04915602852258881 0.0) 
(0.030600510148888743 -0.05123036927474091 0.0) 
(0.03846519793125721 -0.05303426277111561 0.0) 
(0.046220045172015306 -0.054598056052294425 0.0) 
(0.05387584637767462 -0.05459846938479759 0.0) 
(0.061631061934775924 -0.05303228890788898 0.0) 
(0.06950459550695931 -0.05120836597950772 0.0) 
(0.07696728364433156 -0.04907408121440292 0.0) 
(0.08294496443033757 -0.04151680899712885 0.0) 
)
;
	}
	left
	{
		type	fixedValue;
		value	uniform (0.0 0.0 0.0);
	}
	right
	{
		type	fixedValue;
		value	uniform (0.1 0.0 0.0);
	}
	frontAndBackPlanes
	{
		type	empty;
	}
}
