/*
 _____     _____     _____ _____ _____ _____    |  High-order Python FOAM
|  |  |___|  _  |_ _|   __|     |  _  |     |   |  Python Version: 3.10
|     | . |   __| | |   __|  |  |     | | | |   |  Code Version: 0.0
|__|__|___|__|  |_  |__|  |_____|__|__|_|_|_|   |  License: GPLv3
                |___|
*/
FoamFile
{
    version     2.0;
    format      ascii;
    class       volScalarField;
    location    "30.0";
    object     pCorr;
}

dimensions      [0 0 0 1 0 0 0]; 

internalField   nonuniform List<scalar>
100
(
1549.6367402542098 
-6673.063304389201 
-4373.154606040698 
-2132.4457172245175 
-1266.458655198485 
-1273.7624159479988 
-2137.331500340643 
-4325.65312339534 
-6193.830568997316 
1163.8377968016737 
10630.268749218843 
-3305.7126584070693 
-3574.9214685835977 
-534.7387500059577 
992.8266201414635 
999.2338342006756 
-494.28240299750115 
-3426.019711386855 
-3204.438039626838 
10455.127224607437 
8517.199012059944 
-5452.142327467314 
-7141.386357304949 
-4405.098064644464 
-2709.7185079763626 
-2700.5097534502197 
-4366.6874580905605 
-7075.115706593911 
-5400.968617381396 
8442.43447222901 
7924.344657331428 
-7289.947955856193 
-9571.15123471838 
-7340.088755589308 
-5756.424567258743 
-5748.7275936403385 
-7315.622928892 
-9536.551795724032 
-7271.231108889398 
7927.770269113481 
7803.5730532862435 
-7885.508008075434 
-10600.302925641061 
-8622.56271023538 
-7149.310274854259 
-7142.3933025429615 
-8602.505942402277 
-10573.81397263271 
-7864.076279049226 
7812.797781249095 
7831.067168035192 
-7889.283299227519 
-10607.295570506507 
-8625.87723232472 
-7148.795123438785 
-7140.863617935036 
-8602.728395142673 
-10578.12751680873 
-7868.563355735738 
7835.848434482097 
8008.779637558999 
-7300.589207316208 
-9595.598158400393 
-7349.066072929262 
-5753.958394853002 
-5743.365269555026 
-7319.354950928529 
-9558.491590413765 
-7285.351973816767 
7994.978547389465 
8690.816366463037 
-5479.076419776044 
-7189.737655319025 
-4421.1978121380025 
-2703.9427340573516 
-2691.9693245476997 
-4382.190776013539 
-7134.238407170887 
-5463.158862461707 
8575.864910192144 
10895.240605109359 
-3366.5941013248903 
-3621.4410949679245 
-551.1922249132704 
997.767486987318 
1009.2554517448875 
-514.27620680413 
-3564.737758928489 
-3324.4084337975337 
10623.194778619 
1509.160678374923 
-6628.275762631315 
-4377.983099645114 
-2116.102570719187 
-1236.8665720993247 
-1236.052740007394 
-2115.770340022302 
-4375.680306080747 
-6679.720921110046 
1524.3521787520372 
)
;

boundaryField
{
	bottom
	{
		type	fixedValue;
		value	uniform 0.0;
	}
	top
	{
		type	fixedValue;
		value	uniform 0.0;
	}
	left
	{
		type	zeroGradient;
	}
	right
	{
		type	zeroGradient;
	}
	frontAndBackPlanes
	{
		type	empty;
	}
}
