/*
 _____     _____     _____ _____ _____ _____    |  High-order Python FOAM
|  |  |___|  _  |_ _|   __|     |  _  |     |   |  Python Version: 3.10
|     | . |   __| | |   __|  |  |     | | | |   |  Code Version: 0.0
|__|__|___|__|  |_  |__|  |_____|__|__|_|_|_|   |  License: GPLv3
                |___|
*/
FoamFile
{
    version     2.0;
    format      ascii;
    class       volVectorField;
    location    "30.0";
    object     U;
}

dimensions      [0 1 0 0 0 0 0]; 

internalField   nonuniform List<vector>
100
(
(0.017736582403996864 0.03159144947322992 0.0) 
(0.02204513477374119 0.048112753493685906 0.0) 
(0.028494569047377943 0.04945507180331211 0.0) 
(0.036960955846955565 0.05074826546659017 0.0) 
(0.045712876490469664 0.05143534508787516 0.0) 
(0.05449699736686844 0.0514261673929604 0.0) 
(0.06326097128544533 0.05070181326265931 0.0) 
(0.07177424402275169 0.04935158622680102 0.0) 
(0.07817091430004289 0.047702574235883435 0.0) 
(0.08308523516200951 0.03129282616036207 0.0) 
(0.013717270620714525 0.020890899145126197 0.0) 
(0.015552369190575111 0.03593392969341041 0.0) 
(0.024550169302439168 0.04119916778303354 0.0) 
(0.03470490214647965 0.04277472679531673 0.0) 
(0.0449968197068877 0.04336376865102432 0.0) 
(0.05522207682900745 0.043340601802934836 0.0) 
(0.06552808628608311 0.042693995704498784 0.0) 
(0.07569119860654822 0.04102528610584414 0.0) 
(0.08467862911893086 0.03566349579426272 0.0) 
(0.08632314073311957 0.020795362154346506 0.0) 
(0.010599790572690521 0.012085675290087345 0.0) 
(0.011766345569124115 0.02420400967953071 0.0) 
(0.020857526171798924 0.029436413462466192 0.0) 
(0.032400976485358925 0.03150664712169611 0.0) 
(0.04420964165023752 0.032142161762835963 0.0) 
(0.05596594333410788 0.03211380355025861 0.0) 
(0.0677646269590795 0.0314191997051158 0.0) 
(0.07927505722876717 0.02929268376977632 0.0) 
(0.08829836095866447 0.02406646137328645 0.0) 
(0.08946184509582747 0.012052485438843961 0.0) 
(0.01068014012638114 0.006741147334944818 0.0) 
(0.009699504396138009 0.013858701774142812 0.0) 
(0.01863396957326806 0.017605853637277322 0.0) 
(0.030750384717263584 0.019251595514872363 0.0) 
(0.04360743906199487 0.019800232296652256 0.0) 
(0.05650989911472811 0.01977695902676437 0.0) 
(0.06934873769173723 0.019185290878320393 0.0) 
(0.08142670173585875 0.017515466564238736 0.0) 
(0.09032337001926982 0.013782370023616406 0.0) 
(0.08926657808452522 0.006722543699031247 0.0) 
(0.010843668825788133 0.002156818872090073 0.0) 
(0.009021133212208253 0.004544380543872706 0.0) 
(0.017632182757692513 0.005844377065213327 0.0) 
(0.029951917553164394 0.006466816281535713 0.0) 
(0.04329423613768847 0.006678601866499956 0.0) 
(0.056777156575631996 0.006663703542603213 0.0) 
(0.07010264611096179 0.006426288063330636 0.0) 
(0.08239522368869373 0.005790901764061288 0.0) 
(0.09098400273867349 0.004501290687188366 0.0) 
(0.08916034518490955 0.0021384063600340636 0.0) 
(0.010872134223444194 -0.002120889842110049 0.0) 
(0.009024367563820244 -0.004534104396687518 0.0) 
(0.017634774745710374 -0.005852254074401011 0.0) 
(0.029950349841791308 -0.006482765489730143 0.0) 
(0.04328606824479986 -0.006706929308444838 0.0) 
(0.05676266091093539 -0.006714002402172219 0.0) 
(0.07008473114091197 -0.0065022496842829305 0.0) 
(0.0823788002091375 -0.005879781981033775 0.0) 
(0.09097669901406126 -0.0045665115167116245 0.0) 
(0.08913171323353876 -0.0021431227174089815 0.0) 
(0.010709661375739747 -0.006709243033703108 0.0) 
(0.00971887599919897 -0.013856634129263655 0.0) 
(0.018646666253907738 -0.017609214463718374 0.0) 
(0.030746748669351752 -0.019254205222603432 0.0) 
(0.0435836707157943 -0.01981399495167593 0.0) 
(0.056466077360509154 -0.019814669576901457 0.0) 
(0.0692920525913111 -0.019256446319545407 0.0) 
(0.08137416257256411 -0.017612383883542273 0.0) 
(0.0902846251672748 -0.013870193868363176 0.0) 
(0.0892613155134004 -0.006736026506373421 0.0) 
(0.010718280188766756 -0.012079337439555004 0.0) 
(0.011837204583242682 -0.02421867184058281 0.0) 
(0.020884065379920887 -0.029417825881223117 0.0) 
(0.03239766964180164 -0.03148265345835583 0.0) 
(0.044173585312453814 -0.03212607531573245 0.0) 
(0.05589413841621557 -0.03212192197101384 0.0) 
(0.06766480782580607 -0.03147244749412634 0.0) 
(0.07916864609790025 -0.0294032508729097 0.0) 
(0.08822787176609115 -0.0241924540116437 0.0) 
(0.0893021907740893 -0.012090045276735507 0.0) 
(0.014105744279481467 -0.020947722623449953 0.0) 
(0.015629502901627467 -0.03591446000030641 0.0) 
(0.024582470833239813 -0.04114963688311069 0.0) 
(0.03469843427481954 -0.04271196739928856 0.0) 
(0.04495027490846628 -0.04330195655971201 0.0) 
(0.05513278252351597 -0.043300850193554896 0.0) 
(0.06539336240564325 -0.04270213740560485 0.0) 
(0.07552584309868018 -0.041128132689815335 0.0) 
(0.08447825363976229 -0.03588775783891185 0.0) 
(0.0862949918881087 -0.02089267339195235 0.0) 
(0.01774883063564107 -0.03168115610590259 0.0) 
(0.022113247866766075 -0.04805462655653424 0.0) 
(0.028503119040055633 -0.04938080961333683 0.0) 
(0.03694478132532347 -0.0506471999114758 0.0) 
(0.045666382777117064 -0.05133322378265775 0.0) 
(0.0544149040934091 -0.05133398085529678 0.0) 
(0.06314201455739522 -0.05064940452330292 0.0) 
(0.07158743961960706 -0.04936494634342674 0.0) 
(0.07801398412487277 -0.048032530757751414 0.0) 
(0.08228736653865336 -0.03156825020833041 0.0) 
)
;

boundaryField
{
	bottom
	{
		type	solidTraction;
		value	nonuniform List<vector>
10
(
(0.02012368094768632 0.03765963667947299 0.0) 
(0.02521961998630249 0.04996939180287825 0.0) 
(0.030915742872654216 0.05392698826582632 0.0) 
(0.03815158693658266 0.05472209243930993 0.0) 
(0.04608278220995272 0.055362688287852915 0.0) 
(0.05412543459539059 0.05535601472633823 0.0) 
(0.062074455637293115 0.05468761588997895 0.0) 
(0.06934443444235884 0.053786885404037484 0.0) 
(0.07523640792978899 0.04960350730137736 0.0) 
(0.08083016841707004 0.03727716836833619 0.0) 
)
;
	}
	top
	{
		type	solidTraction;
		value	nonuniform List<vector>
10
(
(0.020074753121339856 -0.0377412823114 0.0) 
(0.025219550929779233 -0.04993207127122149 0.0) 
(0.030920577517447517 -0.05383662414688542 0.0) 
(0.038129245426187675 -0.05460770993939296 0.0) 
(0.046034852753264126 -0.055241465954269514 0.0) 
(0.054046510010446594 -0.055243508024397654 0.0) 
(0.06195449633808376 -0.05461039010890296 0.0) 
(0.06917120394421691 -0.05382554448015021 0.0) 
(0.07484751087355401 -0.04988641254292678 0.0) 
(0.07991427565877697 -0.03762140051216602 0.0) 
)
;
	}
	left
	{
		type	fixedValue;
		value	uniform (0.0 0.0 0.0);
	}
	right
	{
		type	fixedValue;
		value	uniform (0.1 0.0 0.0);
	}
	frontAndBackPlanes
	{
		type	empty;
	}
}
