/*
 _____     _____     _____ _____ _____ _____    |  High-order Python FOAM
|  |  |___|  _  |_ _|   __|     |  _  |     |   |  Python Version: 3.10
|     | . |   __| | |   __|  |  |     | | | |   |  Code Version: 0.0
|__|__|___|__|  |_  |__|  |_____|__|__|_|_|_|   |  License: GPLv3
                |___|
*/
FoamFile
{
    version     2.0;
    format      ascii;
    class       volScalarField;
    location    "77.0";
    object     pCorr;
}

dimensions      [0 0 0 1 0 0 0]; 

internalField   nonuniform List<scalar>
100
(
-798.1990569717802 
-1113.6257711145831 
-289.00560493042343 
-109.62341029003147 
-418.3352664462304 
-418.87845246867175 
-128.85787716345223 
-313.25496444629886 
-900.8538311534066 
-914.5648793289073 
3482.559668807645 
-694.9102061403808 
74.39834487201192 
675.5526400135277 
601.2624623913119 
597.8233843173902 
666.017018268758 
97.63791392139038 
-658.9866385567177 
3427.7777434535747 
3225.9812043821894 
-1086.1278336724597 
-576.4230321139235 
235.5271221777734 
270.65671898962677 
268.7396335536314 
233.23959056652672 
-572.9381894331723 
-1081.836658932064 
3158.4378471352297 
3504.997360574356 
-1447.5170905149696 
-891.9356870804261 
4.919304492756598 
109.22974918766442 
108.58342571112087 
3.8998995656015327 
-893.2898519891968 
-1457.9018492376053 
3463.0251666641702 
3698.4229430697364 
-1439.7916257739553 
-910.115685724442 
36.2213418600636 
167.5174104971074 
167.27925546002504 
36.00915728557049 
-911.1955200845589 
-1448.2168697231589 
3662.642771811173 
3707.333399949349 
-1442.8743225045764 
-912.8606197536091 
35.317874874399855 
167.2820839899067 
167.0006858119312 
35.72490442371059 
-912.4398069338818 
-1449.6246346899145 
3676.232615062639 
3533.4724762801266 
-1461.8310544647136 
-902.7081782339225 
2.7228365402472496 
108.31257366414785 
108.02262642380862 
3.9688130858968798 
-897.8168622893247 
-1461.5612437950579 
3501.001052346266 
3284.9937280520107 
-1111.3140790949112 
-599.1429329530578 
228.72805286518556 
266.22415961372604 
265.505246095872 
232.60088379992519 
-580.9981455292195 
-1098.7689831218722 
3225.47760324989 
3599.977491140849 
-734.294030658954 
50.265839152866484 
664.3654491522525 
591.3869264022014 
590.3065997935831 
668.5465844775736 
73.47724354759767 
-701.2660561886298 
3474.6118264813263 
-834.9327279136846 
-1096.476714981175 
-289.77817873883794 
-101.13836473747858 
-414.14847052241515 
-415.7132669790689 
-103.45072761037984 
-287.1993578553772 
-1110.798792006854 
-807.2366856260137 
)
;

boundaryField
{
	bottom
	{
		type	fixedValue;
		value	uniform 0.0;
	}
	top
	{
		type	fixedValue;
		value	uniform 0.0;
	}
	left
	{
		type	zeroGradient;
	}
	right
	{
		type	zeroGradient;
	}
	frontAndBackPlanes
	{
		type	empty;
	}
}
