/*
 _____     _____     _____ _____ _____ _____    |  High-order Python FOAM
|  |  |___|  _  |_ _|   __|     |  _  |     |   |  Python Version: 3.10
|     | . |   __| | |   __|  |  |     | | | |   |  Code Version: 0.0
|__|__|___|__|  |_  |__|  |_____|__|__|_|_|_|   |  License: GPLv3
                |___|
*/
FoamFile
{
    version     2.0;
    format      ascii;
    class       volScalarField;
    location    "16.0";
    object     p;
}

dimensions      [0 0 0 1 0 0 0]; 

internalField   nonuniform List<scalar>
100
(
365165.38400706655 
87215.08887713712 
-87914.39993406634 
-133424.05921832926 
-139578.1108845328 
-139312.01299859665 
-132280.74808681628 
-85831.75436052987 
92713.39784700859 
358563.04896502063 
783216.5642628751 
410351.1275021597 
127903.61851921542 
165.78557119345714 
-39058.79043607965 
-38407.18773612097 
2051.2079390016206 
130760.21145059993 
411046.9046000508 
779673.3773551276 
867011.6684659885 
515545.54432728345 
208073.41525863364 
52401.1514883338 
-4472.235872616198 
-4004.880550634327 
53681.642833413935 
209509.49410261837 
516036.1286578776 
866131.8706322543 
951917.5269293273 
564565.0009547869 
266412.6517712837 
109033.84771543127 
48055.92204180781 
48307.96747994161 
109678.55904789409 
267141.7585119255 
564858.5623606934 
952575.5848106348 
985349.8207858398 
593031.4071878524 
296527.1962957754 
142634.7629549975 
82100.8678721525 
82212.99337618807 
142928.2285525909 
296876.6265718249 
593380.7665342789 
985968.1058493621 
986236.9286906769 
593244.8174339705 
296493.1641099442 
142505.82878885497 
81924.0739713417 
81975.67350330591 
142631.67664766952 
296597.37573773594 
593292.2140535676 
986428.8544915026 
954583.3454093207 
565350.2830405238 
266308.6319629995 
108672.00182840423 
47529.70002640307 
47569.61635132557 
108729.78792268957 
266217.080545058 
564700.4052529345 
954096.3885490786 
871970.2419067416 
516456.54622154037 
207788.3703383388 
51868.099654900434 
-5293.590526127751 
-5177.707637191423 
51990.9469139451 
207744.5814667238 
515345.4965837298 
869192.1894696122 
789124.2823321345 
410929.9492710093 
127715.5090393035 
-374.3321784263899 
-39707.213448229784 
-39598.186570765 
29.863694544988903 
127757.10837839416 
410420.22712614003 
783809.2324995535 
365763.76260460156 
88925.06141845093 
-87717.60680287296 
-133346.36877459838 
-139646.45953656448 
-139634.60147943703 
-133335.30222186315 
-87615.53794046109 
87518.27363052551 
365123.4109439134 
)
;

boundaryField
{
	bottom
	{
		type	pressureTraction;
	}
	top
	{
		type	pressureTraction;
	}
	left
	{
		type	fixedValueFromZeroGrad;
	}
	right
	{
		type	fixedValueFromZeroGrad;
	}
	frontAndBackPlanes
	{
		type	empty;
	}
}
