/*
 _____     _____     _____ _____ _____ _____    |  High-order Python FOAM
|  |  |___|  _  |_ _|   __|     |  _  |     |   |  Python Version: 3.10
|     | . |   __| | |   __|  |  |     | | | |   |  Code Version: 0.0
|__|__|___|__|  |_  |__|  |_____|__|__|_|_|_|   |  License: GPLv3
                |___|
*/
FoamFile
{
    version     2.0;
    format      ascii;
    class       volVectorField;
    location    "16.0";
    object     U;
}

dimensions      [0 1 0 0 0 0 0]; 

internalField   nonuniform List<vector>
100
(
(0.01742147535980317 0.02611070127013151 0.0) 
(0.022045955338572894 0.04596537586751015 0.0) 
(0.02700164164039415 0.04862546203611984 0.0) 
(0.03522138741546379 0.04852437408551742 0.0) 
(0.04493754422094177 0.04772139484849717 0.0) 
(0.05522438157341391 0.047721375600697995 0.0) 
(0.06493793353666004 0.04849880178129792 0.0) 
(0.0731755233561331 0.04853221731292449 0.0) 
(0.0781258462156545 0.04566920549252401 0.0) 
(0.08314219130766283 0.025977933205686476 0.0) 
(0.010917816036096267 0.017369914375958605 0.0) 
(0.014381338803582942 0.03249105955330558 0.0) 
(0.023093274271539854 0.038392681210197226 0.0) 
(0.03337153222852174 0.039473054414505986 0.0) 
(0.04445417865213808 0.03937458601872174 0.0) 
(0.05571317363663744 0.03935959933817455 0.0) 
(0.06680396218776764 0.03941703260545791 0.0) 
(0.07708490579854634 0.03827125773463406 0.0) 
(0.08577343198475841 0.03232293631225178 0.0) 
(0.08908929714273342 0.017313793157089235 0.0) 
(0.008749559748074384 0.010094540708646767 0.0) 
(0.010826972611600066 0.021282790834174992 0.0) 
(0.019505108752470045 0.026668528294879854 0.0) 
(0.03108795814547985 0.028676750775035044 0.0) 
(0.04366575659302796 0.029117794602256483 0.0) 
(0.05647263580563825 0.029097958482677246 0.0) 
(0.06903688328346375 0.028616722114026043 0.0) 
(0.08058813904882987 0.026575377422764734 0.0) 
(0.08921878970707875 0.02120020139855226 0.0) 
(0.09128886003265976 0.010077964973227212 0.0) 
(0.008607001249808247 0.005518054405071994 0.0) 
(0.009139329525058276 0.011995583187854464 0.0) 
(0.017572167575221034 0.0156874928285078 0.0) 
(0.029578124002943386 0.017383503215432486 0.0) 
(0.04310250581491436 0.017931739675258095 0.0) 
(0.056992327869894575 0.017915618874991265 0.0) 
(0.07049952436276699 0.017338693082966712 0.0) 
(0.08247433660472203 0.015628702330004483 0.0) 
(0.09087982553492568 0.011948481714125637 0.0) 
(0.09136283919035218 0.0055064386550990625 0.0) 
(0.008679279580652455 0.001742979017309333 0.0) 
(0.008582356560000863 0.003892074210722036 0.0) 
(0.016765522166850524 0.005167983164011818 0.0) 
(0.028905208979416185 0.0058146503073381334 0.0) 
(0.0428316535145444 0.006044511148433474 0.0) 
(0.05722905246510549 0.0060341596989421705 0.0) 
(0.07114119710549427 0.005786822169831725 0.0) 
(0.08325900215189239 0.005132018637903469 0.0) 
(0.09142469370951754 0.0038633008126882913 0.0) 
(0.09132012837176139 0.0017303400127847506 0.0) 
(0.00869365672913073 -0.0017214735428989598 0.0) 
(0.008583956880601795 -0.0038926997460746724 0.0) 
(0.016765977616131883 -0.005183689387885127 0.0) 
(0.028902690825204653 -0.00583712560309576 0.0) 
(0.042825129316077196 -0.0060760460775526074 0.0) 
(0.057219268943836735 -0.006081050577318311 0.0) 
(0.07113006877026518 -0.005850905083139859 0.0) 
(0.08324937720853802 -0.0052031568486163434 0.0) 
(0.09142086040150722 -0.00391515216581149 0.0) 
(0.09130610467770398 -0.0017365235482118637 0.0) 
(0.008627562154863813 -0.005500849458111843 0.0) 
(0.00915033162039033 -0.012005163308873551 0.0) 
(0.01757708137676266 -0.015702081653223218 0.0) 
(0.029571164009372947 -0.017398145650650294 0.0) 
(0.04308357466117421 -0.0179543996783081 0.0) 
(0.056962817740388305 -0.017954680453695263 0.0) 
(0.07046465612952117 -0.01739964355453668 0.0) 
(0.08244330584111306 -0.01570491542089532 0.0) 
(0.09085742088900836 -0.012015639381530226 0.0) 
(0.09136061991060082 -0.005518318393855737 0.0) 
(0.008819747730859967 -0.01009731142502171 0.0) 
(0.010872788714128646 -0.021309910557966782 0.0) 
(0.019516931356847435 -0.026671926434859574 0.0) 
(0.03107916090369272 -0.028677025799443822 0.0) 
(0.04363690816388177 -0.029122140022499073 0.0) 
(0.05642447873234571 -0.02911857209421168 0.0) 
(0.06897488091513355 -0.028668019847231843 0.0) 
(0.08052531374960553 -0.026660745599094256 0.0) 
(0.08917626380476451 -0.02129343982627304 0.0) 
(0.09119089731881108 -0.01010270159726609 0.0) 
(0.011174620485452934 -0.017412120121166268 0.0) 
(0.014431945957405084 -0.032501528750299206 0.0) 
(0.023109835412855738 -0.03838646606728154 0.0) 
(0.03336152559008991 -0.03945304604219095 0.0) 
(0.044419513004734956 -0.039349207992987 0.0) 
(0.05565308050737273 -0.039347907758498016 0.0) 
(0.06671845983425574 -0.039443069948465075 0.0) 
(0.07698088169173302 -0.038364884120102215 0.0) 
(0.08564781764971004 -0.03247737689211741 0.0) 
(0.08908244183877112 -0.017378526573662224 0.0) 
(0.017442100874444155 -0.026174891122016753 0.0) 
(0.02209693746074992 -0.04596116220563246 0.0) 
(0.027003196777379602 -0.048613222888084597 0.0) 
(0.03520092098121641 -0.04848343769534782 0.0) 
(0.04489959844206146 -0.047666029650206214 0.0) 
(0.055171554213641144 -0.04766979267933434 0.0) 
(0.06486848447203038 -0.04848681664261685 0.0) 
(0.0730628925160867 -0.048588803096010096 0.0) 
(0.07799236558237528 -0.04592166317712328 0.0) 
(0.08259032895972121 -0.026103400064645836 0.0) 
)
;

boundaryField
{
	bottom
	{
		type	solidTraction;
		value	nonuniform List<vector>
10
(
(0.020628994595618875 0.0320031593911416 0.0) 
(0.025385903182013742 0.0475523355398962 0.0) 
(0.02971884598434223 0.053329125240328325 0.0) 
(0.03647939309293373 0.05289463253665853 0.0) 
(0.04531318534638297 0.051976881708714985 0.0) 
(0.054845085540752535 0.0519780491794841 0.0) 
(0.06367775142944498 0.052872990302685566 0.0) 
(0.07045615800526094 0.05320976011908624 0.0) 
(0.07494546640041097 0.047303487683815065 0.0) 
(0.08003552938769515 0.031818070015447716 0.0) 
)
;
	}
	top
	{
		type	solidTraction;
		value	nonuniform List<vector>
10
(
(0.020613713526291697 -0.032066393453865624 0.0) 
(0.025394147024654205 -0.047560323359131185 0.0) 
(0.029719157097610655 -0.053309093663960715 0.0) 
(0.036454777737116695 -0.05284689510319884 0.0) 
(0.04527421925705176 -0.05191000736124645 0.0) 
(0.054795312623813104 -0.051914456010387564 0.0) 
(0.06360902778345473 -0.05284925928594643 0.0) 
(0.07034357152518968 -0.05328558105049147 0.0) 
(0.07465598995622089 -0.047509159798934344 0.0) 
(0.07938981020877932 -0.031985000498250156 0.0) 
)
;
	}
	left
	{
		type	fixedValue;
		value	uniform (0.0 0.0 0.0);
	}
	right
	{
		type	fixedValue;
		value	uniform (0.1 0.0 0.0);
	}
	frontAndBackPlanes
	{
		type	empty;
	}
}
