/*
 _____     _____     _____ _____ _____ _____    |  High-order Python FOAM
|  |  |___|  _  |_ _|   __|     |  _  |     |   |  Python Version: 3.10
|     | . |   __| | |   __|  |  |     | | | |   |  Code Version: 0.0
|__|__|___|__|  |_  |__|  |_____|__|__|_|_|_|   |  License: GPLv3
                |___|
*/
FoamFile
{
    version     2.0;
    format      ascii;
    class       volScalarField;
    location    "68.0";
    object     p;
}

dimensions      [0 0 0 1 0 0 0]; 

internalField   nonuniform List<scalar>
100
(
401557.98651220795 
-133530.600631673 
-198584.69493342657 
-150929.98540017963 
-128528.90105744763 
-128787.13617624615 
-151058.27139719235 
-196172.01546123883 
-107745.91855527475 
379663.8795966483 
1296029.0483082617 
391461.37603132374 
154006.6395692777 
170031.43213617176 
194421.1323552838 
194780.9410209808 
171946.5786787975 
161066.65057069054 
395453.93775525305 
1284992.1959864402 
1412153.2804135098 
530025.2450234062 
219770.37785110445 
205411.29702049814 
222274.2720203171 
222536.4878321665 
206677.3850565297 
221902.9313179575 
530848.2597205348 
1406074.546051672 
1572527.110850302 
596420.3547287387 
271719.77200159733 
237557.16622716072 
246633.4975658929 
246697.01073682372 
237819.9792542618 
271943.8861053518 
595364.8189853643 
1570753.0316964348 
1651339.5320290553 
648758.4236698406 
307295.432022841 
266270.08437324443 
271098.0927979656 
271043.9735163072 
266140.31555273774 
306935.852967217 
647854.8647163563 
1649755.864841276 
1653247.3075680754 
648715.0967525796 
306902.4143317245 
265929.92030730133 
270848.2875186146 
270783.802957696 
265800.77588445763 
306499.83478701935 
647622.6676783664 
1651299.8027701983 
1578372.8609100936 
596356.749928033 
270369.2595972941 
236605.9700605555 
245924.71683556458 
245941.92177003477 
236684.25162064403 
270247.611542479 
594765.0518386884 
1575378.2756298147 
1423802.0544609965 
529250.8705007237 
217073.95137205944 
203808.37699535245 
221176.16124468425 
221326.86825549524 
204418.81299867557 
218129.4996518204 
527894.186061636 
1415073.0098843894 
1312984.1836494769 
388895.54868760123 
151401.23916915187 
168287.86637297718 
193302.7560459424 
193518.26086253708 
169361.3218760354 
153142.52683505032 
390019.75152064156 
1295718.9255835721 
399983.4041250786 
-130162.63746144745 
-198802.9292402758 
-150414.12327439775 
-127779.15509406212 
-127906.9726514124 
-150739.2836986325 
-198826.72463219528 
-133661.33236881715 
400510.8429805588 
)
;

boundaryField
{
	bottom
	{
		type	pressureTraction;
	}
	top
	{
		type	pressureTraction;
	}
	left
	{
		type	fixedValueFromZeroGrad;
	}
	right
	{
		type	fixedValueFromZeroGrad;
	}
	frontAndBackPlanes
	{
		type	empty;
	}
}
