/*
 _____     _____     _____ _____ _____ _____    |  High-order Python FOAM
|  |  |___|  _  |_ _|   __|     |  _  |     |   |  Python Version: 3.10
|     | . |   __| | |   __|  |  |     | | | |   |  Code Version: 0.0
|__|__|___|__|  |_  |__|  |_____|__|__|_|_|_|   |  License: GPLv3
                |___|
*/
FoamFile
{
    version     2.0;
    format      ascii;
    class       volVectorField;
    location    "68.0";
    object     U;
}

dimensions      [0 1 0 0 0 0 0]; 

internalField   nonuniform List<vector>
100
(
(0.015684728292417606 0.03585885506093279 0.0) 
(0.020285121495994728 0.046508266592542084 0.0) 
(0.028612158452707936 0.047038902387851945 0.0) 
(0.037399160008140836 0.049485654557004405 0.0) 
(0.04592903782533994 0.05097980587295584 0.0) 
(0.05437622165060532 0.050967211748382445 0.0) 
(0.06293365052120935 0.04944187383524644 0.0) 
(0.07180858046738661 0.04701241752912203 0.0) 
(0.07992957613613749 0.046084501184016295 0.0) 
(0.08534822152621391 0.03526222373509213 0.0) 
(0.01574125483492659 0.023649626564247545 0.0) 
(0.015107195729929345 0.03602911546099445 0.0) 
(0.02474119575761677 0.03997933254011517 0.0) 
(0.03508250454961481 0.04179649128863069 0.0) 
(0.04516494032022406 0.042812898797603284 0.0) 
(0.05513932004966525 0.04278952629840939 0.0) 
(0.06524158101331885 0.041719144233737356 0.0) 
(0.07558814349458659 0.03979945876177984 0.0) 
(0.08522349764188063 0.035661090515980966 0.0) 
(0.08437423394823926 0.023511980521983392 0.0) 
(0.011514786618517077 0.012966506291759139 0.0) 
(0.011231667601993275 0.024351432566892338 0.0) 
(0.02119477438844098 0.02860532886398111 0.0) 
(0.032966342958867495 0.03047356351217506 0.0) 
(0.04445397758297185 0.03121770115748895 0.0) 
(0.05578804734659796 0.0311878861643873 0.0) 
(0.06726917162300379 0.030378088728675666 0.0) 
(0.07900672905568179 0.028428981657302874 0.0) 
(0.08887056851819693 0.024162914773361993 0.0) 
(0.08857488175521683 0.012913985263755343 0.0) 
(0.01154562278628932 0.007211157881037379 0.0) 
(0.008676475308064771 0.01387285577754206 0.0) 
(0.018838796128152164 0.017152488556524886 0.0) 
(0.031373478611575564 0.01856736253960477 0.0) 
(0.043894758260775976 0.019089350748169413 0.0) 
(0.056273179638320216 0.01906405126372858 0.0) 
(0.06877442277647254 0.01849176637333352 0.0) 
(0.08125937434104258 0.01704230238259381 0.0) 
(0.0913657343176964 0.013773214969810255 0.0) 
(0.08841111608696355 0.007191495173292602 0.0) 
(0.011680703711645181 0.0023036854153018456 0.0) 
(0.007821835510338333 0.004558643993718807 0.0) 
(0.017714969185392747 0.005702779883558669 0.0) 
(0.030562067764868434 0.006242199271934217 0.0) 
(0.04358938120619642 0.006430707924046754 0.0) 
(0.05652087598945742 0.006415448963394875 0.0) 
(0.06952619311457163 0.0061996956527360855 0.0) 
(0.08233499446881941 0.005644431400598831 0.0) 
(0.09219250279744837 0.004510572105677806 0.0) 
(0.08833356662750777 0.0022841313235270103 0.0) 
(0.011713740296827133 -0.002249455605863943 0.0) 
(0.00782271012026014 -0.004545055669560876 0.0) 
(0.017717276714316048 -0.0057138091252762185 0.0) 
(0.030560658862846844 -0.006260791400710525 0.0) 
(0.043579559686107855 -0.006459145734695364 0.0) 
(0.05650200337609664 -0.006464003031329572 0.0) 
(0.06950166895997292 -0.006274202190042039 0.0) 
(0.0823121290951141 -0.005733561545676781 0.0) 
(0.09218272622338959 -0.004572542135580452 0.0) 
(0.08829770637345749 -0.002273004183588576 0.0) 
(0.011583830100029977 -0.007160460624049039 0.0) 
(0.008689440212697502 -0.013867903215143688 0.0) 
(0.018852536009237062 -0.017158146772598325 0.0) 
(0.03137057580336041 -0.018569087845805785 0.0) 
(0.04386555603517157 -0.019099128469351974 0.0) 
(0.05621559405206836 -0.01909593057374831 0.0) 
(0.06869548770163066 -0.018559409418027834 0.0) 
(0.08118456571522877 -0.017142870144297252 0.0) 
(0.09131589996300572 -0.013867113484573588 0.0) 
(0.08839222865057708 -0.0071938443241835025 0.0) 
(0.011651416759263405 -0.012947953758156123 0.0) 
(0.011304304586828153 -0.02436744027917962 0.0) 
(0.02122483081689405 -0.028580354069876746 0.0) 
(0.03296305862563037 -0.030438890080838985 0.0) 
(0.0444072420142054 -0.03118880715767931 0.0) 
(0.05569143995778856 -0.03118114079243563 0.0) 
(0.06712904100255652 -0.030416662072968656 0.0) 
(0.07884956545861234 -0.02854391346310186 0.0) 
(0.08877279696290145 -0.024311768711862695 0.0) 
(0.08838470047710562 -0.01296551693312254 0.0) 
(0.016239048946347534 -0.02375328542940732 0.0) 
(0.015179952993107893 -0.03599644798722814 0.0) 
(0.024775731464277802 -0.03990430059145569 0.0) 
(0.03506981794221515 -0.04170578686596649 0.0) 
(0.04509796749348778 -0.042725275305032236 0.0) 
(0.055012717260271154 -0.04272274806193208 0.0) 
(0.06504690765545335 -0.041689684782370465 0.0) 
(0.07535122882705475 -0.039866455616086545 0.0) 
(0.08493739465751271 -0.03594521475367566 0.0) 
(0.08428345706897361 -0.023643621117384234 0.0) 
(0.015671062149494493 -0.03600602700090704 0.0) 
(0.020359070047745516 -0.046425326903204764 0.0) 
(0.028609305005806416 -0.0469287891643815 0.0) 
(0.03737047965991239 -0.04934370183185065 0.0) 
(0.045856314513440535 -0.05084658790739278 0.0) 
(0.054244832776270215 -0.050845513176096126 0.0) 
(0.06273365495294582 -0.04934133921562731 0.0) 
(0.07149367933741978 -0.04690071370391913 0.0) 
(0.07979400743851563 -0.04638222374864058 0.0) 
(0.08435905818163585 -0.03580437674614276 0.0) 
)
;

boundaryField
{
	bottom
	{
		type	solidTraction;
		value	nonuniform List<vector>
10
(
(0.016936281597360672 0.04178945282601146 0.0) 
(0.023032664454845864 0.04918773203668799 0.0) 
(0.03060313001067275 0.051298184137110805 0.0) 
(0.03850838077754695 0.05317108462900953 0.0) 
(0.04629816751705468 0.054744350080151744 0.0) 
(0.05401478338103193 0.05473661755457759 0.0) 
(0.061845883734320775 0.05315972177051205 0.0) 
(0.0697871485312788 0.05123751673074668 0.0) 
(0.07750193217078201 0.04876283879250793 0.0) 
(0.08422634543931598 0.04107978038865102 0.0) 
)
;
	}
	top
	{
		type	solidTraction;
		value	nonuniform List<vector>
10
(
(0.01684142243587738 -0.04192820562293255 0.0) 
(0.023014802175105563 -0.04914018576676086 0.0) 
(0.030595143838942917 -0.051168045321411254 0.0) 
(0.038467527275135055 -0.05301320951295718 0.0) 
(0.04621863636777153 -0.054587623546554505 0.0) 
(0.05387820793422841 -0.05458815363178942 0.0) 
(0.06162947619495293 -0.05301147208684517 0.0) 
(0.06951074665235824 -0.051145950820732596 0.0) 
(0.07705857298528491 -0.04905630599154163 0.0) 
(0.08312515512220432 -0.041712256985833994 0.0) 
)
;
	}
	left
	{
		type	fixedValue;
		value	uniform (0.0 0.0 0.0);
	}
	right
	{
		type	fixedValue;
		value	uniform (0.1 0.0 0.0);
	}
	frontAndBackPlanes
	{
		type	empty;
	}
}
