/*
 _____     _____     _____ _____ _____ _____    |  High-order Python FOAM
|  |  |___|  _  |_ _|   __|     |  _  |     |   |  Python Version: 3.10
|     | . |   __| | |   __|  |  |     | | | |   |  Code Version: 0.0
|__|__|___|__|  |_  |__|  |_____|__|__|_|_|_|   |  License: GPLv3
                |___|
*/
FoamFile
{
    version     2.0;
    format      ascii;
    class       volScalarField;
    location    "87.0";
    object     p;
}

dimensions      [0 0 0 1 0 0 0]; 

internalField   nonuniform List<scalar>
100
(
386647.87346194475 
-154324.56907624862 
-204030.85022243008 
-152970.1387295513 
-136288.9438013972 
-136556.2658281406 
-153456.54598342715 
-202071.43587865523 
-124564.99683828579 
362579.2845738024 
1361245.687659545 
378466.3997167083 
155372.1713620162 
182679.53563290223 
205726.3090313929 
206022.5787045173 
184418.09357174853 
162867.32708926027 
383129.41023005714 
1349181.0003313909 
1472533.606067729 
509748.0301705833 
209009.5210899811 
209852.88315556274 
227395.3246075805 
227621.95052882849 
211076.91259296206 
211208.37427993948 
510651.9940796536 
1465188.9376253546 
1638153.637108217 
569414.6072375017 
255084.27010569625 
237684.98348721446 
248712.59890566027 
248763.86426401476 
237928.56342307967 
255283.86183834937 
568166.5538360544 
1635592.1580219408 
1720602.1670130068 
621912.6225162415 
290323.4842741949 
266971.4716915937 
274244.2153744673 
274185.28263452125 
266837.05556575226 
289943.88587433123 
620852.7663654296 
1718347.4425524278 
1722676.4789335106 
621811.5115947142 
289879.161664692 
266614.4940999388 
273990.1002536432 
273919.9873692738 
266492.1616312322 
289484.24838385696 
620593.5734513985 
1720145.452698562 
1644531.3592743478 
569082.7560191937 
253532.39128428692 
236692.9899502811 
247986.9362364731 
247998.44493977283 
236793.8980738586 
253501.9952109702 
567496.8047694617 
1640927.5701079813 
1485285.0736046822 
508501.9405595784 
205888.075221749 
208123.06297791537 
226214.72319885387 
226351.87164291734 
208805.56867827364 
207282.87078933723 
507380.51120266144 
1475441.2647260255 
1380398.235277988 
375163.35890214564 
152314.85081925298 
180726.75825958335 
204423.60920247395 
204619.02026974282 
181878.46576190434 
154490.29094913465 
376905.4960504118 
1360785.4720239614 
384385.42215924687 
-150636.01714303897 
-204264.02711469255 
-152295.26592459748 
-135460.09661805097 
-135617.26727815755 
-152663.8627391965 
-204239.5292252524 
-154402.6545616357 
385432.02610251383 
)
;

boundaryField
{
	bottom
	{
		type	pressureTraction;
	}
	top
	{
		type	pressureTraction;
	}
	left
	{
		type	fixedValueFromZeroGrad;
	}
	right
	{
		type	fixedValueFromZeroGrad;
	}
	frontAndBackPlanes
	{
		type	empty;
	}
}
