/*
 _____     _____     _____ _____ _____ _____    |  High-order Python FOAM
|  |  |___|  _  |_ _|   __|     |  _  |     |   |  Python Version: 3.10
|     | . |   __| | |   __|  |  |     | | | |   |  Code Version: 0.0
|__|__|___|__|  |_  |__|  |_____|__|__|_|_|_|   |  License: GPLv3
                |___|
*/
FoamFile
{
    version     2.0;
    format      ascii;
    class       volScalarField;
    location    "28.0";
    object     p;
}

dimensions      [0 0 0 1 0 0 0]; 

internalField   nonuniform List<scalar>
100
(
414121.23509968666 
12794.318831917813 
-134575.90730038742 
-128117.6234826922 
-102848.15919368468 
-102828.14133637302 
-127324.87476926908 
-132123.28432023025 
23539.413381162376 
402378.59612458776 
1009486.0412117922 
451316.25891662115 
171673.93312159553 
113706.25460472632 
120102.55265204559 
120670.43387447098 
115684.47784279536 
175763.0536982743 
452445.4138962457 
1003029.5553289262 
1136012.1737016544 
608933.6623096564 
289317.0143759736 
195853.61910634968 
184292.8248294401 
184661.95563052822 
197035.17833183214 
290772.93392314704 
609151.4440389709 
1133468.0703994276 
1275034.2574944873 
694519.7960341136 
370837.745624893 
260548.89599230123 
237331.1668062268 
237467.4039234675 
260921.30039975123 
371201.3419240046 
694157.6351035347 
1274931.0790534317 
1337945.7346764125 
745101.3045185518 
412604.45560750517 
296639.0835982919 
268453.3783120545 
268448.31830731354 
296627.5531526635 
412509.63374710805 
744853.333185512 
1337857.9754983706 
1339180.441427238 
745263.6964612916 
412459.8198892202 
296430.0479654272 
268237.88150130346 
268178.7322035218 
296272.2019095939 
412132.4017346058 
744694.435533947 
1338595.942263468 
1278765.075082982 
695205.7105334414 
370373.2341638882 
259960.947796182 
236707.91560927406 
236645.76796522457 
259757.87561786565 
369881.45186194865 
693811.5760560217 
1277299.320291467 
1143193.7090403954 
609566.6978727599 
288345.6401707004 
194950.9440338031 
183376.87205974065 
183386.41049606467 
194887.1491806364 
288079.5582840053 
607739.1721779752 
1138268.8116618153 
1018705.0485076603 
451184.4123823467 
170797.74279057924 
112806.08214996285 
119356.00081838583 
119408.08970450299 
113107.26386601497 
170803.91719179048 
450522.97853770625 
1009641.6071524279 
414402.9956511214 
15042.618323958337 
-134561.52785335935 
-127972.55746167662 
-102613.81361926757 
-102772.70361264417 
-128375.26930695075 
-134819.44537398985 
12711.789472633154 
413781.3585322979 
)
;

boundaryField
{
	bottom
	{
		type	pressureTraction;
	}
	top
	{
		type	pressureTraction;
	}
	left
	{
		type	fixedValueFromZeroGrad;
	}
	right
	{
		type	fixedValueFromZeroGrad;
	}
	frontAndBackPlanes
	{
		type	empty;
	}
}
