/*
 _____     _____     _____ _____ _____ _____    |  High-order Python FOAM
|  |  |___|  _  |_ _|   __|     |  _  |     |   |  Python Version: 3.10
|     | . |   __| | |   __|  |  |     | | | |   |  Code Version: 0.0
|__|__|___|__|  |_  |__|  |_____|__|__|_|_|_|   |  License: GPLv3
                |___|
*/
FoamFile
{
    version     2.0;
    format      ascii;
    class       volScalarField;
    location    "28.0";
    object     pCorr;
}

dimensions      [0 0 0 1 0 0 0]; 

internalField   nonuniform List<scalar>
100
(
2404.111821832951 
-6663.749106347235 
-4569.2414202299415 
-2062.137783090185 
-929.7967734319672 
-938.5086781737963 
-2067.719001019313 
-4519.320852677692 
-6183.878129122122 
1996.2099499145859 
12150.454374574694 
-2651.698308999003 
-3497.960886843477 
-407.1842863211736 
1318.4531306898225 
1325.582252824941 
-363.8617498913957 
-3345.989428245662 
-2557.1437063286444 
11958.261635361125 
9940.757371890924 
-4983.235409500846 
-7554.498118564015 
-5075.673166798913 
-3353.6712037790976 
-3343.5012984300265 
-5034.614763344916 
-7486.0183195727 
-4933.980874470503 
9862.688781043082 
9213.445823480279 
-7177.5439111742035 
-10593.441360702876 
-8890.948202440877 
-7446.278208843546 
-7437.673287729267 
-8864.00236578618 
-10555.747694641253 
-7157.637983328905 
9220.868639969922 
8969.48537670619 
-8006.9147549722875 
-12021.661515034066 
-10722.015787280357 
-9478.749010970136 
-9471.342597000028 
-10700.539322506498 
-11993.125161692049 
-7983.447379021676 
8981.470832957068 
9002.389774364894 
-8007.516994622989 
-12026.546423011028 
-10724.23339424935 
-9478.050947366959 
-9470.656574239378 
-10702.483257014763 
-11999.274880165285 
-7988.959081528979 
9005.444542720894 
9312.742659341835 
-7177.783270009907 
-10612.014795490832 
-8896.91258633514 
-7443.386570497962 
-7434.8772788945935 
-8873.039346621144 
-10583.433212925673 
-7173.683647574348 
9291.368142642996 
10138.722362600709 
-4997.160091609881 
-7595.1982117133775 
-5087.707468416349 
-3347.1910497779872 
-3339.0132515430096 
-5059.244276627505 
-7555.100683995743 
-4999.865250923419 
10004.35664494095 
12437.503363366312 
-2701.725822311928 
-3537.6461918089476 
-420.11380984371937 
1324.0462903066184 
1331.2623267266702 
-395.0507029287841 
-3498.752981365526 
-2677.6860429759863 
12141.074391738859 
2370.3634153370886 
-6609.780500323451 
-4570.591718562334 
-2043.8107674765868 
-899.1687967246198 
-902.4737892277501 
-2054.3100239545197 
-4580.880622068554 
-6676.811159008698 
2377.8444966710326 
)
;

boundaryField
{
	bottom
	{
		type	fixedValue;
		value	uniform 0.0;
	}
	top
	{
		type	fixedValue;
		value	uniform 0.0;
	}
	left
	{
		type	zeroGradient;
	}
	right
	{
		type	zeroGradient;
	}
	frontAndBackPlanes
	{
		type	empty;
	}
}
