/*
 _____     _____     _____ _____ _____ _____    |  High-order Python FOAM
|  |  |___|  _  |_ _|   __|     |  _  |     |   |  Python Version: 3.10
|     | . |   __| | |   __|  |  |     | | | |   |  Code Version: 0.0
|__|__|___|__|  |_  |__|  |_____|__|__|_|_|_|   |  License: GPLv3
                |___|
*/
FoamFile
{
    version     2.0;
    format      ascii;
    class       volVectorField;
    location    "28.0";
    object     U;
}

dimensions      [0 1 0 0 0 0 0]; 

internalField   nonuniform List<vector>
100
(
(0.01790633340019296 0.031055406212233103 0.0) 
(0.02231762436545729 0.04814704072308772 0.0) 
(0.028547278133167497 0.04965066550834453 0.0) 
(0.036928373463826374 0.05077685894856878 0.0) 
(0.045685523298522816 0.05130108819532027 0.0) 
(0.05451561043221833 0.05129316106550227 0.0) 
(0.063283876602132 0.05073282551399914 0.0) 
(0.07170985184000771 0.04954633451550987 0.0) 
(0.07789725651007195 0.04774656064508619 0.0) 
(0.08289426729245922 0.030782355974088422 0.0) 
(0.013579406502862608 0.020666356500641372 0.0) 
(0.015665812349570492 0.0359145812980113 0.0) 
(0.02462254115504464 0.04134038773459669 0.0) 
(0.03472629773480461 0.04288967368383254 0.0) 
(0.04499782589085967 0.04341333637719464 0.0) 
(0.05521120439705307 0.04339084817346886 0.0) 
(0.0654971318819036 0.04281076464854269 0.0) 
(0.07561045079019071 0.04117057997720058 0.0) 
(0.0845566640155996 0.035655221854716077 0.0) 
(0.08645564451423227 0.020575061544686947 0.0) 
(0.010603161527328545 0.01204069903233192 0.0) 
(0.011928780383293142 0.024243304917185415 0.0) 
(0.02094600500311705 0.029581507776587954 0.0) 
(0.03242562655717345 0.031682448717147184 0.0) 
(0.04421040819534311 0.03230798473997787 0.0) 
(0.0559560835926034 0.03228025904476721 0.0) 
(0.06773126342417528 0.03159715293590103 0.0) 
(0.07917923402972496 0.02944235931394885 0.0) 
(0.08813221098276586 0.024111213178268674 0.0) 
(0.08945685468984153 0.012009083178094621 0.0) 
(0.010710524665470117 0.006735568144219683 0.0) 
(0.009927450039813924 0.013912377181829276 0.0) 
(0.018760482419760603 0.017715668308707643 0.0) 
(0.030788112142088226 0.019393962585812687 0.0) 
(0.043610544434662696 0.01995091826691102 0.0) 
(0.056498683709892014 0.019928145372333072 0.0) 
(0.06930372960034234 0.01932929223513808 0.0) 
(0.08129493664720193 0.01762793045229862 0.0) 
(0.09009276162241589 0.013838662892098097 0.0) 
(0.08923473232822066 0.006717261603256106 0.0) 
(0.010892162931961933 0.0021575885571729425 0.0) 
(0.009277435241051835 0.004565647002894899 0.0) 
(0.017783388205934524 0.00588496676892384 0.0) 
(0.030001674155640187 0.006519534767920265 0.0) 
(0.04330060057824965 0.006736065317331341 0.0) 
(0.056763750492211947 0.00672132573855225 0.0) 
(0.07004688445653492 0.006479521275072803 0.0) 
(0.08223993379371566 0.005832349058630146 0.0) 
(0.0907258788172253 0.004523434942199401 0.0) 
(0.08911186308703636 0.0021395597600495785 0.0) 
(0.010920923218418699 -0.002123324470308584 0.0) 
(0.009281020098752568 -0.004556336234655436 0.0) 
(0.01778624481211208 -0.005893765348302055 0.0) 
(0.030000322191982197 -0.0065368556855471115 0.0) 
(0.043292786341320076 -0.006766249648714202 0.0) 
(0.05674983819373552 -0.006773601143988103 0.0) 
(0.0700296886865743 -0.006557037844526451 0.0) 
(0.08222409310573302 -0.005922051839134555 0.0) 
(0.09071875597902401 -0.00458913628799759 0.0) 
(0.08908305980200634 -0.002145310855577129 0.0) 
(0.010739172557113893 -0.006705193157009164 0.0) 
(0.009948002458438502 -0.01391096504876407 0.0) 
(0.01877385630263267 -0.017719743996204483 0.0) 
(0.030785076513810905 -0.01939804337359645 0.0) 
(0.04358785620551251 -0.019966869322179687 0.0) 
(0.056456668061879794 -0.019968285219769018 0.0) 
(0.06924941771564298 -0.019402270350257392 0.0) 
(0.08124437375181287 -0.017725426532065557 0.0) 
(0.09005463141084741 -0.013926278803010029 0.0) 
(0.08923053765539421 -0.006731497244867598 0.0) 
(0.010722298124783666 -0.012034812429901837 0.0) 
(0.012000789868797681 -0.024257674665159837 0.0) 
(0.020973445230634987 -0.02956353180539744 0.0) 
(0.03242335756451099 -0.03166033114756694 0.0) 
(0.044176246140646906 -0.03229482205914054 0.0) 
(0.05588741622615767 -0.03229190359281976 0.0) 
(0.0676356735386736 -0.03165349389399982 0.0) 
(0.07907722762464985 -0.02955344022267587 0.0) 
(0.08806351365394634 -0.024235586172212567 0.0) 
(0.08929732484818084 -0.012045487775150602 0.0) 
(0.013961711155702255 -0.020718755984127223 0.0) 
(0.015744576382501253 -0.03589448092736383 0.0) 
(0.024656227190007984 -0.04129205258801698 0.0) 
(0.034721910293983686 -0.042829632165306816 0.0) 
(0.04495445587005443 -0.04335544525982138 0.0) 
(0.05512635796591249 -0.04335618811534516 0.0) 
(0.06536826293472664 -0.04282483489740445 0.0) 
(0.07545118837402491 -0.041277463412791086 0.0) 
(0.08436298258782868 -0.03587410097858164 0.0) 
(0.08643256064818132 -0.020668991083603525 0.0) 
(0.017920133569381397 -0.031139139656045728 0.0) 
(0.02238705444304237 -0.04808770380440134 0.0) 
(0.028559106150910764 -0.04957785648685039 0.0) 
(0.03691580828346157 -0.05067922379272741 0.0) 
(0.04564369546349154 -0.051203291187694094 0.0) 
(0.05443969276834853 -0.05120712889527228 0.0) 
(0.06317215557046815 -0.05068927977427164 0.0) 
(0.0715313433355241 -0.049571983363515315 0.0) 
(0.07773740086620676 -0.04807531903526688 0.0) 
(0.08211409070710937 -0.031034946534919478 0.0) 
)
;

boundaryField
{
	bottom
	{
		type	solidTraction;
		value	nonuniform List<vector>
10
(
(0.02039104574915286 0.03705663726881543 0.0) 
(0.025488768592908304 0.04987273841175412 0.0) 
(0.030997034278319992 0.054067317334438335 0.0) 
(0.03811347260983431 0.05470773348317183 0.0) 
(0.04605101234853801 0.05517168664487579 0.0) 
(0.054148719592946266 0.05516616199435336 0.0) 
(0.06210251115579426 0.05467466475128342 0.0) 
(0.0692533178274806 0.05392747645513269 0.0) 
(0.07495884792372505 0.049519658987669184 0.0) 
(0.0805406424329289 0.0367040469804243 0.0) 
)
;
	}
	top
	{
		type	solidTraction;
		value	nonuniform List<vector>
10
(
(0.020344818058930167 -0.037131450182109726 0.0) 
(0.02549141342172671 -0.04983315004646982 0.0) 
(0.031005601403806583 -0.05397822150243217 0.0) 
(0.038095678654572036 -0.05459680289123641 0.0) 
(0.046008628611141564 -0.055055260675816564 0.0) 
(0.0540767450930483 -0.05506072133557056 0.0) 
(0.06199055001470364 -0.05460831076565753 0.0) 
(0.06908612734190488 -0.05397851661933447 0.0) 
(0.0745735328713946 -0.04979902874754933 0.0) 
(0.0796422019575446 -0.03702245012713615 0.0) 
)
;
	}
	left
	{
		type	fixedValue;
		value	uniform (0.0 0.0 0.0);
	}
	right
	{
		type	fixedValue;
		value	uniform (0.1 0.0 0.0);
	}
	frontAndBackPlanes
	{
		type	empty;
	}
}
