/*
 _____     _____     _____ _____ _____ _____    |  High-order Python FOAM
|  |  |___|  _  |_ _|   __|     |  _  |     |   |  Python Version: 3.10
|     | . |   __| | |   __|  |  |     | | | |   |  Code Version: 0.0
|__|__|___|__|  |_  |__|  |_____|__|__|_|_|_|   |  License: GPLv3
                |___|
*/
FoamFile
{
    version     2.0;
    format      ascii;
    class       volScalarField;
    location    "6.0";
    object     p;
}

dimensions      [0 0 0 1 0 0 0]; 

internalField   nonuniform List<scalar>
100
(
248199.15307408833 
186807.01974066772 
83539.41456006003 
48792.89592537147 
31714.367128838727 
31839.155818116094 
49225.92836281743 
84186.30356252854 
188171.69208614848 
245955.98542663283 
625543.1250780621 
508364.5063738237 
366242.23743638676 
268200.94164874346 
222367.1449369192 
222622.25525643895 
268875.9562511024 
367106.35072376335 
508459.2227715424 
624314.7902810073 
858808.2187999305 
732996.6128899233 
554870.3705411521 
421240.48958706716 
353350.6296313442 
353561.80107883713 
421792.7717869741 
555464.1107194807 
733241.8722859063 
858765.083855404 
1032939.6720363956 
861744.5806113859 
662690.7704337756 
513127.39569624315 
435926.37754091126 
436061.39465673093 
513477.6674919807 
663118.5747813473 
862018.6107108268 
1033719.077371302 
1107199.321097277 
921086.2961855609 
709478.7297075628 
553644.3303094042 
473215.63112362835 
473284.17693796253 
553828.164513363 
709731.8821038008 
921443.8018607788 
1107813.6177475676 
1107809.2127774402 
921330.5926369068 
709541.4362844465 
553560.268872312 
473035.40108092234 
473045.4452603952 
553582.7175883347 
709562.805772161 
921420.0491982973 
1108105.934170851 
1034661.192010517 
862587.0308347808 
662852.1604610283 
512888.15778123995 
435407.83123383136 
435376.7832014431 
512769.99088149826 
662600.3609459241 
862072.3035266876 
1034588.9315839866 
861787.0859763464 
734032.0285033982 
555025.8085616278 
420870.92786580604 
352544.7229051646 
352532.3064497579 
420681.96858579526 
554632.4691364361 
733151.5889210206 
860400.1879594781 
628616.2166168862 
509235.38972164586 
366405.8880786117 
267788.97557021107 
221647.00400563967 
221583.12624932305 
267677.98724443675 
365971.63038152293 
508634.4416789565 
626111.7356971002 
248822.08556332113 
187874.72632092945 
83699.6072215522 
48678.47706389433 
31376.484534077943 
31359.057081415493 
48580.11554625825 
83541.10397069168 
186890.99392059556 
248324.46834650327 
)
;

boundaryField
{
	bottom
	{
		type	pressureTraction;
	}
	top
	{
		type	pressureTraction;
	}
	left
	{
		type	fixedValueFromZeroGrad;
	}
	right
	{
		type	fixedValueFromZeroGrad;
	}
	frontAndBackPlanes
	{
		type	empty;
	}
}
