/*
 _____     _____     _____ _____ _____ _____    |  High-order Python FOAM
|  |  |___|  _  |_ _|   __|     |  _  |     |   |  Python Version: 3.10
|     | . |   __| | |   __|  |  |     | | | |   |  Code Version: 0.0
|__|__|___|__|  |_  |__|  |_____|__|__|_|_|_|   |  License: GPLv3
                |___|
*/
FoamFile
{
    version     2.0;
    format      ascii;
    class       volScalarField;
    location    "37.0";
    object     p;
}

dimensions      [0 0 0 1 0 0 0]; 

internalField   nonuniform List<scalar>
100
(
420965.9162752986 
-42337.81001832678 
-166725.21465279572 
-141968.02544154663 
-111175.11990528132 
-111227.79268322607 
-141275.5150652102 
-163954.1586912578 
-27397.20316500067 
406015.7967412935 
1097715.5652618026 
426294.8161131649 
151530.76767013068 
121049.3108830576 
139535.2258293677 
140118.05628915425 
123263.72971967919 
156790.94549310708 
428295.0459378752 
1089811.6055060443 
1214371.0592012573 
573993.9168023355 
248695.54315496233 
182085.24746669232 
185184.56346383804 
185589.0534110238 
183481.75692489636 
250585.81846727655 
574556.7134826732 
1211079.0009624797 
1355249.6810695177 
651287.7812394991 
317713.90833707975 
231315.48909621208 
222740.09842083784 
222901.93268818757 
231788.22645208874 
318225.72709270165 
650938.0894220318 
1355003.8348268757 
1420923.55575119 
700852.4796986708 
355358.0783613211 
261795.4087129781 
247771.54834210337 
247790.61982960842 
261858.2073859026 
355350.22722868115 
700630.2373448814 
1420742.4041363392 
1422358.8277169417 
700956.1280563653 
355133.2514299343 
261542.5824679512 
247549.99533870502 
247531.46204012758 
261507.600312387 
354947.20711271896 
700440.798384034 
1421682.0972696724 
1359608.292092822 
651795.5359145162 
316979.9705984896 
230606.70632580982 
222108.47120725512 
222121.1706926357 
230617.1902640203 
316754.07431878446 
650488.8063207128 
1357952.5176649778 
1222892.6138119209 
574281.6180731207 
247222.06526726595 
180977.28550540388 
184271.0383248726 
184381.49920987376 
181250.7019037597 
247454.16266627796 
572638.4574440537 
1217012.2654533605 
1109107.7386930226 
425531.60637944244 
150168.6948498344 
119937.75875755068 
138776.79949478208 
138936.67610740953 
120588.76083724824 
150740.1676289167 
425333.7630877799 
1097788.3252987938 
420837.2462643922 
-39769.88715572709 
-166796.15489646044 
-141719.57397106744 
-110719.48040324947 
-110852.09072438016 
-142066.12077398918 
-166967.02057642996 
-42453.998307210306 
420417.336854328 
)
;

boundaryField
{
	bottom
	{
		type	pressureTraction;
	}
	top
	{
		type	pressureTraction;
	}
	left
	{
		type	fixedValueFromZeroGrad;
	}
	right
	{
		type	fixedValueFromZeroGrad;
	}
	frontAndBackPlanes
	{
		type	empty;
	}
}
