/*
 _____     _____     _____ _____ _____ _____    |  High-order Python FOAM
|  |  |___|  _  |_ _|   __|     |  _  |     |   |  Python Version: 3.10
|     | . |   __| | |   __|  |  |     | | | |   |  Code Version: 0.0
|__|__|___|__|  |_  |__|  |_____|__|__|_|_|_|   |  License: GPLv3
                |___|
*/
FoamFile
{
    version     2.0;
    format      ascii;
    class       volVectorField;
    location    "11.0";
    object     U;
}

dimensions      [0 1 0 0 0 0 0]; 

internalField   nonuniform List<vector>
100
(
(0.01930096364063758 0.02296541972052912 0.0) 
(0.02644729473237173 0.0483553456364605 0.0) 
(0.03070862005310314 0.05796264589889 0.0) 
(0.03761684425654757 0.062314998115969925 0.0) 
(0.04571991524949596 0.06370631947048662 0.0) 
(0.05439058136680372 0.06367429606182683 0.0) 
(0.06250236654636032 0.0622068582410541 0.0) 
(0.06944470722364098 0.05777156375304131 0.0) 
(0.07373655141244316 0.04804232514069479 0.0) 
(0.08120329322809662 0.022894601930529657 0.0) 
(0.009866281630311238 0.016591055494737533 0.0) 
(0.014569790968174515 0.034406922690144684 0.0) 
(0.02322630771328185 0.04466707982416849 0.0) 
(0.03330982983246531 0.04902945993140127 0.0) 
(0.04439820436444593 0.050609067142700234 0.0) 
(0.05575930410243003 0.050575682692483 0.0) 
(0.06685186257564925 0.048928599665665366 0.0) 
(0.07693098962295876 0.044504998389160146 0.0) 
(0.08555575080355682 0.034237075447573644 0.0) 
(0.0901197324350123 0.01654042088799452 0.0) 
(0.007944559220313329 0.009987092790124111 0.0) 
(0.010160422655514673 0.022726753935607715 0.0) 
(0.018352855003625986 0.03053500880064556 0.0) 
(0.02998759063205527 0.034642077212477064 0.0) 
(0.04321409428918556 0.03622367711768654 0.0) 
(0.056910816620064024 0.036194850753912766 0.0) 
(0.07012076054112396 0.03456161246778835 0.0) 
(0.08172268922379541 0.030425048424177627 0.0) 
(0.08987203210557847 0.02263829341671503 0.0) 
(0.0920825964006921 0.009969762316278394 0.0) 
(0.007414232612281335 0.005528176007464086 0.0) 
(0.008181077348333945 0.012839865094673745 0.0) 
(0.015991764330891896 0.01773656819997187 0.0) 
(0.02809008710228851 0.020545651803030803 0.0) 
(0.04249637620946633 0.021736086366091152 0.0) 
(0.05758523398876188 0.021715550252331822 0.0) 
(0.07197419399148983 0.020490569371305577 0.0) 
(0.08404319003031788 0.01766771293654984 0.0) 
(0.09182983229524647 0.012786273112090619 0.0) 
(0.09255113122774183 0.005513109660210376 0.0) 
(0.007334390299878518 0.0017510787193893299 0.0) 
(0.007494330664052178 0.004164057377692463 0.0) 
(0.015047508973072107 0.0058099223866482155 0.0) 
(0.02730194184612185 0.0067998060745137565 0.0) 
(0.042179381609185156 0.0072326346411105 0.0) 
(0.057869423031161056 0.007219488210536546 0.0) 
(0.07273371836664594 0.006764918729813695 0.0) 
(0.08496878803207629 0.005765717639784375 0.0) 
(0.09250724449051274 0.004128344169814733 0.0) 
(0.09265931071801863 0.0017350389369948805 0.0) 
(0.0073473107271731395 -0.0017220788167507245 0.0) 
(0.0074968402208527634 -0.004147924517678207 0.0) 
(0.01504844248690999 -0.005802270112195943 0.0) 
(0.027299468801553282 -0.006797715162273958 0.0) 
(0.04217315614390024 -0.0072426777622916425 0.0) 
(0.05786068639829338 -0.0072498520096823055 0.0) 
(0.07272422549506156 -0.0068174065412572255 0.0) 
(0.08496072850221369 -0.005829524029436761 0.0) 
(0.09250438195771893 -0.004177079798215052 0.0) 
(0.09264814425157533 -0.0017396934878768113 0.0) 
(0.007435790286390327 -0.005503772769424693 0.0) 
(0.008195365038111505 -0.012833307625506198 0.0) 
(0.015998278156976967 -0.017726811991658403 0.0) 
(0.02808336802350381 -0.02053428544179071 0.0) 
(0.042478590358289214 -0.021736889082742412 0.0) 
(0.05755964770648892 -0.021738513890998724 0.0) 
(0.07194514889875984 -0.02054008219067608 0.0) 
(0.08401730162594309 -0.01773650093358727 0.0) 
(0.0918104199427317 -0.012850323504794854 0.0) 
(0.09255161754160156 -0.005523156631460485 0.0) 
(0.008017902126150969 -0.009980712835059396 0.0) 
(0.010211483313034888 -0.022737563359739133 0.0) 
(0.018366193711908046 -0.03050990991838654 0.0) 
(0.029979216439049963 -0.03461401106220004 0.0) 
(0.04319084042884545 -0.03620716395404998 0.0) 
(0.05687021179067411 -0.03620119496376538 0.0) 
(0.07007058734404929 -0.034604809247738365 0.0) 
(0.08167266966329352 -0.030502191997264252 0.0) 
(0.08983512875358451 -0.022728057621259557 0.0) 
(0.09198914160177309 -0.009988717681842195 0.0) 
(0.010117608218876183 -0.016613709851459664 0.0) 
(0.01462364977429539 -0.034391412487719514 0.0) 
(0.023242298247083203 -0.044626861666200036 0.0) 
(0.03330059649321643 -0.04897959185796722 0.0) 
(0.0443662196550913 -0.050562970125412283 0.0) 
(0.05571178471726321 -0.0505581748687381 0.0) 
(0.06678579629188869 -0.04895848068465506 0.0) 
(0.07684888525967236 -0.0446002154115615 0.0) 
(0.0854536200756218 -0.03437294537183658 0.0) 
(0.09012301537830454 -0.016591649311391003 0.0) 
(0.019317751996744983 -0.02300531482005881 0.0) 
(0.026492461759744613 -0.0483068165524497 0.0) 
(0.030713337410418665 -0.057904614943984765 0.0) 
(0.03760645604976451 -0.0622382876977577 0.0) 
(0.045700920123571236 -0.06363362413822109 0.0) 
(0.05436285051153073 -0.06362646108882027 0.0) 
(0.062459412862464515 -0.0622146854465142 0.0) 
(0.06935727524072559 -0.057854205190803164 0.0) 
(0.07360441103297363 -0.04827361349082648 0.0) 
(0.08071895136520695 -0.022959685496625155 0.0) 
)
;

boundaryField
{
	bottom
	{
		type	solidTraction;
		value	nonuniform List<vector>
10
(
(0.02410453754813957 0.02855000602436157 0.0) 
(0.030863692823185532 0.05073126717042176 0.0) 
(0.03511289513620391 0.06401879653092674 0.0) 
(0.04003804078491865 0.0688720707261498 0.0) 
(0.04651568792088976 0.07051232828271899 0.0) 
(0.05357334143339508 0.07047676355597815 0.0) 
(0.06006741310413692 0.06875463143731694 0.0) 
(0.06504218495113753 0.06379513351907831 0.0) 
(0.06946076704846854 0.05046052620430095 0.0) 
(0.07650458521603044 0.028433153276225358 0.0) 
)
;
	}
	top
	{
		type	solidTraction;
		value	nonuniform List<vector>
10
(
(0.02408285203374075 -0.028581194615025524 0.0) 
(0.03086679129266419 -0.05069147035721626 0.0) 
(0.035117315355254364 -0.06394820393886562 0.0) 
(0.040028755900182844 -0.06878675618355702 0.0) 
(0.04650240195894891 -0.07042964193496039 0.0) 
(0.05355399480351492 -0.0704209110772088 0.0) 
(0.06002824131343351 -0.06875726298035197 0.0) 
(0.06495044227020282 -0.06389606621963892 0.0) 
(0.06919454773467197 -0.05064310352789408 0.0) 
(0.07593081903987446 -0.028529140505103048 0.0) 
)
;
	}
	left
	{
		type	fixedValue;
		value	uniform (0.0 0.0 0.0);
	}
	right
	{
		type	fixedValue;
		value	uniform (0.1 0.0 0.0);
	}
	frontAndBackPlanes
	{
		type	empty;
	}
}
