/*
 _____     _____     _____ _____ _____ _____    |  High-order Python FOAM
|  |  |___|  _  |_ _|   __|     |  _  |     |   |  Python Version: 3.10
|     | . |   __| | |   __|  |  |     | | | |   |  Code Version: 0.0
|__|__|___|__|  |_  |__|  |_____|__|__|_|_|_|   |  License: GPLv3
                |___|
*/
FoamFile
{
    version     2.0;
    format      ascii;
    class       volScalarField;
    location    "45.0";
    object     p;
}

dimensions      [0 0 0 1 0 0 0]; 

internalField   nonuniform List<scalar>
100
(
418795.4823747308 
-76764.99922053708 
-180599.01051866086 
-145024.17890918453 
-114166.40002886539 
-114297.23139768999 
-144540.12559745708 
-177794.55494834454 
-58469.43591091625 
401518.79924000584 
1164928.3461875133 
415848.2603582272 
152371.91169906378 
140821.84444116688 
164486.33573309187 
165007.55371049908 
143004.36669464683 
158303.32502787773 
418475.95448525384 
1155960.372020308 
1283906.9741806635 
564060.6016391282 
242232.18545441062 
195430.3385508902 
206257.08970901195 
206617.61407006774 
196800.1336021113 
244222.03101317136 
564710.5653787219 
1279818.725983877 
1433140.1325237586 
640753.648758971 
307497.1398195581 
239790.9690987679 
239778.5780042113 
239900.0626967978 
240175.79754238087 
307892.9381524624 
640166.8236059734 
1432489.7848937833 
1504270.3635297292 
692486.0868349017 
345140.54574636073 
269728.4119785875 
264360.08340595063 
264344.09185003245 
269698.0944882251 
344979.03653402097 
692022.5705880718 
1503706.1923183762 
1505848.3433697599 
692536.8609910321 
344851.93355179526 
269438.0463287623 
264125.7087574041 
264085.81324463425 
269352.4146934649 
344565.13448770734 
691818.0480955135 
1504819.5684524141 
1437948.1469855465 
641082.1100867573 
306541.88806554646 
238976.25814853242 
239114.3933603693 
239132.4535039325 
239012.75187311892 
306338.71625683905 
639661.9261630621 
1435923.5045104749 
1293397.4803867573 
564018.5833318601 
240339.8877679496 
194130.8267995435 
205289.0577079866 
205429.02723139778 
194545.7866539768 
240836.63494473865 
562438.0581917792 
1286662.5252105808 
1177995.547276169 
414525.0436826397 
150590.857668365 
139490.98464952983 
163636.46533796506 
163840.50905498743 
140328.56757608725 
151553.3794851384 
414708.8046384897 
1164880.3670607007 
418271.9722773523 
-73972.5928624547 
-180749.99514926545 
-144720.8838048805 
-113598.71036627468 
-113715.36970819044 
-145031.54900342613 
-180855.34492882038 
-76907.25722311299 
418090.50515263545 
)
;

boundaryField
{
	bottom
	{
		type	pressureTraction;
	}
	top
	{
		type	pressureTraction;
	}
	left
	{
		type	fixedValueFromZeroGrad;
	}
	right
	{
		type	fixedValueFromZeroGrad;
	}
	frontAndBackPlanes
	{
		type	empty;
	}
}
