/*
 _____     _____     _____ _____ _____ _____    |  High-order Python FOAM
|  |  |___|  _  |_ _|   __|     |  _  |     |   |  Python Version: 3.10
|     | . |   __| | |   __|  |  |     | | | |   |  Code Version: 0.0
|__|__|___|__|  |_  |__|  |_____|__|__|_|_|_|   |  License: GPLv3
                |___|
*/
FoamFile
{
    version     2.0;
    format      ascii;
    class       volScalarField;
    location    "45.0";
    object     pCorr;
}

dimensions      [0 0 0 1 0 0 0]; 

internalField   nonuniform List<scalar>
100
(
-421.8799434477468 
-3712.384881604847 
-1365.3442244527582 
-324.56250911149203 
-512.4406496901985 
-521.6228496111186 
-352.68729559579583 
-1369.1411863576702 
-3313.306808892805 
-690.4028877245262 
7716.979719580585 
-1192.0899440691767 
125.85146631288504 
2038.8503734065603 
2394.716853501818 
2386.216294740761 
2030.2926389852787 
198.696590607252 
-1118.4995170109553 
7594.773646313672 
7848.157630629924 
-1387.7400655854367 
-1019.4620271075752 
1009.3773344850775 
1651.1320770792988 
1645.2776206904005 
1004.0061966683967 
-1010.6223224955744 
-1379.1341914609322 
7749.735001705851 
8649.177862552546 
-1710.0228349936206 
-1693.8962902813992 
246.55162857808028 
1008.6255842556052 
1003.8212925128006 
235.86702009119045 
-1708.3757681970958 
-1739.5804801364056 
8596.783670675752 
9177.607750150251 
-1587.7169956129787 
-1811.8278983621258 
92.7579316959134 
882.5662743085834 
878.5004258104545 
81.84512831826973 
-1830.2628613617298 
-1617.6868756560343 
9127.51408542244 
9195.628383639525 
-1592.8168318077182 
-1818.0612712941236 
89.38340112726318 
881.5922783232309 
878.717407034116 
82.44140137488557 
-1831.4408156102666 
-1619.3254187341881 
9148.88673967718 
8705.386404908388 
-1728.8124108202255 
-1716.6578915854636 
237.0016864806561 
1006.1121148561156 
1005.6208912969005 
237.1967480397994 
-1717.4325407552199 
-1745.5860509778788 
8656.064006750477 
7966.33833826103 
-1423.9718371455938 
-1064.5728677923432 
990.4706703329465 
1645.6534389848348 
1647.191202593723 
1002.2876177654994 
-1038.093349469013 
-1419.985872574486 
7859.7378006257395 
7919.87900566419 
-1256.2211839744743 
80.08369272797538 
2015.507083335584 
2383.7032462856537 
2386.4665784263925 
2031.9536153943613 
121.15351082640582 
-1213.1230543736758 
7701.753056502085 
-470.7530952244707 
-3683.2874771270626 
-1371.971212812286 
-316.03790524043785 
-500.0485831218414 
-499.32267448581734 
-314.6777490254665 
-1367.343181759889 
-3715.521970644981 
-440.8382720477611 
)
;

boundaryField
{
	bottom
	{
		type	fixedValue;
		value	uniform 0.0;
	}
	top
	{
		type	fixedValue;
		value	uniform 0.0;
	}
	left
	{
		type	zeroGradient;
	}
	right
	{
		type	zeroGradient;
	}
	frontAndBackPlanes
	{
		type	empty;
	}
}
