/*
 _____     _____     _____ _____ _____ _____    |  High-order Python FOAM
|  |  |___|  _  |_ _|   __|     |  _  |     |   |  Python Version: 3.10
|     | . |   __| | |   __|  |  |     | | | |   |  Code Version: 0.0
|__|__|___|__|  |_  |__|  |_____|__|__|_|_|_|   |  License: GPLv3
                |___|
*/
FoamFile
{
    version     2.0;
    format      ascii;
    class       volVectorField;
    location    "45.0";
    object     U;
}

dimensions      [0 1 0 0 0 0 0]; 

internalField   nonuniform List<vector>
100
(
(0.01661029857644904 0.034072643333566764 0.0) 
(0.020838290817300098 0.04706766672647696 0.0) 
(0.028473624371791864 0.04758651623556729 0.0) 
(0.037245537921253305 0.04955007529162457 0.0) 
(0.04587580561063671 0.05084358440332989 0.0) 
(0.05438978495612754 0.05083540245831338 0.0) 
(0.06303750327066046 0.049512247213968866 0.0) 
(0.07187035006649493 0.04752508430894089 0.0) 
(0.07937805751915099 0.04663936118639241 0.0) 
(0.08432852308222756 0.03362246528433287 0.0) 
(0.014813774413316144 0.02226159094891821 0.0) 
(0.01534730084644374 0.035863041235407456 0.0) 
(0.0246546824346531 0.040216764390098615 0.0) 
(0.03493411938679988 0.04187750695357721 0.0) 
(0.045105583151573495 0.042738326332103796 0.0) 
(0.05516221884166285 0.04271661591600523 0.0) 
(0.06534935202885764 0.04180146328064723 0.0) 
(0.0756342485719626 0.04004022231263454 0.0) 
(0.08493620214808205 0.03554187842598341 0.0) 
(0.08526349280926303 0.022144719844710874 0.0) 
(0.011069101296798714 0.012520023831367645 0.0) 
(0.011510666258802944 0.024183448703218924 0.0) 
(0.02106450279037875 0.028804179206880207 0.0) 
(0.032748484514187486 0.030704725676308685 0.0) 
(0.04436698542731918 0.0313875310972394 0.0) 
(0.05584780749784413 0.031358938285197514 0.0) 
(0.06745762214290911 0.030613918262431046 0.0) 
(0.07910647218937505 0.028644088789075383 0.0) 
(0.0885748419609495 0.02402026354016793 0.0) 
(0.08900619621017089 0.012478048185704657 0.0) 
(0.011145450457856957 0.006960618312313257 0.0) 
(0.009190308198723273 0.013808248071849358 0.0) 
(0.018759810440353675 0.017255859407791483 0.0) 
(0.031124562337928693 0.018735592933750683 0.0) 
(0.04378770490289485 0.01925001360507607 0.0) 
(0.0563608036361891 0.019225812439356796 0.0) 
(0.06900420843327541 0.018664728699580743 0.0) 
(0.08132359787305257 0.01715552877230685 0.0) 
(0.0908444968489237 0.013720295690907634 0.0) 
(0.08880508873555658 0.006941451448213521 0.0) 
(0.011294853958631524 0.002225097066140402 0.0) 
(0.008417198239473445 0.004530763484481258 0.0) 
(0.01768469727921571 0.005731529374153261 0.0) 
(0.030311307705087255 0.006294245337445385 0.0) 
(0.04347623761544315 0.006485437272793343 0.0) 
(0.056620218663411714 0.006470479580930599 0.0) 
(0.06976508451654487 0.0062529741932658865 0.0) 
(0.08235781394331523 0.005675807186343152 0.0) 
(0.09159477967765599 0.004485252965824918 0.0) 
(0.08871351956673106 0.0022059574597679296 0.0) 
(0.011325542380504776 -0.002181545757369408 0.0) 
(0.008419226446926989 -0.004520791389210239 0.0) 
(0.017687058618581247 -0.005743376334108148 0.0) 
(0.03030978479497723 -0.0063139757153348325 0.0) 
(0.043467207534236746 -0.006515917528095005 0.0) 
(0.05660334565952156 -0.006521612709714597 0.0) 
(0.06974355736372427 -0.006329830061035538 0.0) 
(0.08233787613031489 -0.005766534712111407 0.0) 
(0.0915860165203797 -0.004550607708731949 0.0) 
(0.08868139280151247 -0.002204543858354875 0.0) 
(0.011179116363892721 -0.006920819719634514 0.0) 
(0.009206382150456122 -0.01380660338482745 0.0) 
(0.01877265321952609 -0.017262772574504728 0.0) 
(0.031121217467602425 -0.01874031117606526 0.0) 
(0.043761100477038045 -0.019263786779663148 0.0) 
(0.05630944008204129 -0.01926209495616966 0.0) 
(0.06893533545897454 -0.018735644100471353 0.0) 
(0.08125906782950398 -0.017255982788878185 0.0) 
(0.09079960953943397 -0.013812751887586069 0.0) 
(0.0887936286057869 -0.006950847553730587 0.0) 
(0.011195819534132252 -0.01250949825688287 0.0) 
(0.01158199995079515 -0.024200522417693035 0.0) 
(0.021092409130138223 -0.02878556147531011 0.0) 
(0.032745083749283796 -0.030678281019459925 0.0) 
(0.04432528773285294 -0.031367002859767394 0.0) 
(0.05576233624234141 -0.03136053721229198 0.0) 
(0.06733559597456573 -0.030660705038337604 0.0) 
(0.078973061053862 -0.028758668775397945 0.0) 
(0.08849006014377779 -0.024158978669876888 0.0) 
(0.08883148403769403 -0.01252308309668409 0.0) 
(0.015255238200648452 -0.02234142303418051 0.0) 
(0.015422806782791646 -0.0358403323985071 0.0) 
(0.02468768897897982 -0.04015839670251244 0.0) 
(0.034924065613997385 -0.04180456440285879 0.0) 
(0.04504799306761083 -0.042666241455927074 0.0) 
(0.05505244720495011 -0.04266366615361034 0.0) 
(0.06518219949204893 -0.04178961884834293 0.0) 
(0.07543081505378127 -0.04012606886251911 0.0) 
(0.08469107298021143 -0.0357989656995646 0.0) 
(0.08520480492702193 -0.022260586211176218 0.0) 
(0.016611770088720782 -0.03419221318741166 0.0) 
(0.020908858907550714 -0.04700180801567103 0.0) 
(0.02847624600991757 -0.04749870844006135 0.0) 
(0.03722225340922937 -0.0494333759802231 0.0) 
(0.04581396023812012 -0.050729923876842595 0.0) 
(0.05427877371148627 -0.050728294374803355 0.0) 
(0.06287460318915068 -0.049429728422171006 0.0) 
(0.0716217805883243 -0.047472925256475666 0.0) 
(0.07923179247833792 -0.046964525232280556 0.0) 
(0.083423868360361 -0.034034248316628136 0.0) 
)
;

boundaryField
{
	bottom
	{
		type	solidTraction;
		value	nonuniform List<vector>
10
(
(0.018309661624126405 0.04010649742109651 0.0) 
(0.023789214976544595 0.0493471686081542 0.0) 
(0.030601512655344564 0.05191462619565074 0.0) 
(0.0383691864138575 0.05330285625719941 0.0) 
(0.046238424483232295 0.05461201408041412 0.0) 
(0.05403057229444554 0.05460807747600562 0.0) 
(0.06192587655376525 0.05328754931675991 0.0) 
(0.0697228982130135 0.051816418715464975 0.0) 
(0.0767095800140609 0.048943599577621996 0.0) 
(0.08276180995078256 0.0395545787927806 0.0) 
)
;
	}
	top
	{
		type	solidTraction;
		value	nonuniform List<vector>
10
(
(0.018240465781786275 -0.04021863643138553 0.0) 
(0.02378061413712611 -0.04930920509424413 0.0) 
(0.030599487686189204 -0.05180936716786434 0.0) 
(0.03833634753575087 -0.05317189981380438 0.0) 
(0.04617161520322001 -0.05447694701299204 0.0) 
(0.05391807083555926 -0.0544766269275006 0.0) 
(0.0617550502285154 -0.05316847801064584 0.0) 
(0.0695004809653224 -0.051788115820195185 0.0) 
(0.07629098311132257 -0.04923988227023182 0.0) 
(0.0817404480683076 -0.04004888891437723 0.0) 
)
;
	}
	left
	{
		type	fixedValue;
		value	uniform (0.0 0.0 0.0);
	}
	right
	{
		type	fixedValue;
		value	uniform (0.1 0.0 0.0);
	}
	frontAndBackPlanes
	{
		type	empty;
	}
}
