/*
 _____     _____     _____ _____ _____ _____    |  High-order Python FOAM
|  |  |___|  _  |_ _|   __|     |  _  |     |   |  Python Version: 3.10
|     | . |   __| | |   __|  |  |     | | | |   |  Code Version: 0.0
|__|__|___|__|  |_  |__|  |_____|__|__|_|_|_|   |  License: GPLv3
                |___|
*/
FoamFile
{
    version     2.0;
    format      ascii;
    class       volScalarField;
    location    "40.0";
    object     p;
}

dimensions      [0 0 0 1 0 0 0]; 

internalField   nonuniform List<scalar>
100
(
420493.7955260896 
-56667.79861040085 
-172915.33065836315 
-143413.5257617823 
-112133.50182809855 
-112215.99956685558 
-142792.44411863133 
-170111.77970978452 
-40425.50208363924 
404622.8146043402 
1124231.092760729 
421854.3920407833 
151448.10278478853 
129071.97095078668 
150178.51586906222 
150741.39052368034 
131288.0146747649 
156987.8531327904 
424102.5286691454 
1115906.0828837452 
1241888.3382605652 
570143.984383085 
246259.1908028993 
188095.63361380433 
194854.84654046124 
195245.09742205855 
189490.3965028269 
248199.49196219895 
570748.7517421067 
1238299.366544925 
1386294.1007283628 
647661.3966234644 
314275.5774179093 
235817.07727699875 
231187.60825401556 
231335.18777688284 
236259.99286938683 
314749.1286185781 
647228.3120846993 
1385905.7064989496 
1454290.4697760334 
698328.1123968078 
352166.0348912169 
266284.0796825263 
256210.0358800961 
256216.64623012926 
266314.2183413271 
352104.43259159935 
698021.190707708 
1453976.5697683261 
1455778.5277893452 
698408.429259281 
351913.33394072857 
266014.3209458064 
255982.48490019274 
255957.83082432428 
265965.68275725504 
351696.9862484277 
697825.5421764434 
1454981.8921621756 
1390820.365692654 
648093.4487141613 
313447.6575162362 
235060.66757607815 
230540.9539891946 
230559.6880185992 
235091.66180853968 
313243.8898528124 
646755.973167798 
1389038.7313129914 
1250778.4452327818 
570296.6486709038 
244612.75475603656 
186905.38912809466 
193919.0661728879 
194046.70485362638 
187248.4849534839 
244963.44085134045 
568690.1600901403 
1244581.602971768 
1136264.2582397363 
420868.25137563306 
149914.78453844792 
127870.31649104114 
149386.40093812504 
149569.9654344165 
128609.08916111231 
150653.1625247603 
420826.0012220274 
1124260.4058928925 
420215.9387062005 
-54018.22376490449 
-173023.36468629516 
-143147.39235114362 
-111631.25608350616 
-111754.7274958696 
-143472.57187783736 
-173160.51013120296 
-56792.932754816306 
419885.17880195956 
)
;

boundaryField
{
	bottom
	{
		type	pressureTraction;
	}
	top
	{
		type	pressureTraction;
	}
	left
	{
		type	fixedValueFromZeroGrad;
	}
	right
	{
		type	fixedValueFromZeroGrad;
	}
	frontAndBackPlanes
	{
		type	empty;
	}
}
