/*
 _____     _____     _____ _____ _____ _____    |  High-order Python FOAM
|  |  |___|  _  |_ _|   __|     |  _  |     |   |  Python Version: 3.10
|     | . |   __| | |   __|  |  |     | | | |   |  Code Version: 0.0
|__|__|___|__|  |_  |__|  |_____|__|__|_|_|_|   |  License: GPLv3
                |___|
*/
FoamFile
{
    version     2.0;
    format      ascii;
    class       volVectorField;
    location    "40.0";
    object     U;
}

dimensions      [0 1 0 0 0 0 0]; 

internalField   nonuniform List<vector>
100
(
(0.01686902343777976 0.03342792092204776 0.0) 
(0.021014508138655213 0.0472619363127383 0.0) 
(0.028359491031927735 0.0478230641993803 0.0) 
(0.0371059703172419 0.049532979132308426 0.0) 
(0.045816113074653206 0.05065508548446645 0.0) 
(0.05443570231801093 0.05064734343462901 0.0) 
(0.0631607463624879 0.049494457289169826 0.0) 
(0.07196199261054759 0.047750141151223745 0.0) 
(0.07920139485888884 0.04683688443890113 0.0) 
(0.08403553796510278 0.033021651020116845 0.0) 
(0.014473237433036986 0.021816912032422604 0.0) 
(0.01536057686490748 0.03575965843949782 0.0) 
(0.024575708521565993 0.04025225736810544 0.0) 
(0.0348416135203423 0.041821528156863186 0.0) 
(0.045067672826954626 0.04258414196965317 0.0) 
(0.05518809240056684 0.04256249566024714 0.0) 
(0.06542872083598641 0.04174515899096871 0.0) 
(0.0757001729350663 0.04007713191812426 0.0) 
(0.08490776409887454 0.03545360360492983 0.0) 
(0.0855930260664739 0.021706427013375537 0.0) 
(0.010892621443262975 0.012348805059292275 0.0) 
(0.011545651336379827 0.024071976468688035 0.0) 
(0.020978658171816624 0.028799486368066132 0.0) 
(0.032640289113579184 0.030696572609310836 0.0) 
(0.04432240266020109 0.031342544097393316 0.0) 
(0.05588382079256869 0.03131427997522617 0.0) 
(0.06755639612599348 0.030607329858578173 0.0) 
(0.07918259593834726 0.028644848328478346 0.0) 
(0.08853446966279703 0.023916951343886706 0.0) 
(0.08917827216747795 0.01230985240563052 0.0) 
(0.01096823436076432 0.006861257982398463 0.0) 
(0.009300506064147545 0.013743142816461324 0.0) 
(0.01870048632471417 0.017237567059814697 0.0) 
(0.03101308172935701 0.01873400354915757 0.0) 
(0.04373866669003364 0.01924188428545493 0.0) 
(0.05640405479197885 0.019218122533912828 0.0) 
(0.0691098409259088 0.018664917891644463 0.0) 
(0.08137824025519964 0.017140731722450918 0.0) 
(0.09073179980926036 0.013659170634264532 0.0) 
(0.08898168512422294 0.0068425328544961354 0.0) 
(0.01111787547710809 0.0021925107852984265 0.0) 
(0.008553734910975785 0.004506027737470947 0.0) 
(0.01764622368349378 0.005722347620628727 0.0) 
(0.030203948631022357 0.0062918782495636335 0.0) 
(0.04342682699015702 0.0064833903474852935 0.0) 
(0.05666579863138936 0.0064686306885569315 0.0) 
(0.06986904488215671 0.006251296054128537 0.0) 
(0.08239396591797453 0.0056678769211385245 0.0) 
(0.09145723622500358 0.004461700741457709 0.0) 
(0.08888873893857749 0.0021737733921065277 0.0) 
(0.011147455657219129 -0.002152024800191024 0.0) 
(0.0085559786579012 -0.004497541493012655 0.0) 
(0.017648503612861924 -0.0057350950102450695 0.0) 
(0.03020232139237227 -0.006312709957656746 0.0) 
(0.043418002293001634 -0.006515219793666574 0.0) 
(0.05664958201107802 -0.00652106805962479 0.0) 
(0.0698485498895804 -0.006328992450888745 0.0) 
(0.0823750743323618 -0.005758791284553274 0.0) 
(0.09144891875853915 -0.004527516180995464 0.0) 
(0.08885807003480589 -0.002174585887714058 0.0) 
(0.011000502467475708 -0.00682466244853281 0.0) 
(0.00931699784464158 -0.013743084848163894 0.0) 
(0.018712798238203675 -0.01724577599043163 0.0) 
(0.03100938277815534 -0.018740621389683406 0.0) 
(0.04371274231485383 -0.019257822767497032 0.0) 
(0.05635474229681045 -0.01925643544038435 0.0) 
(0.06904442152037223 -0.018737005517683026 0.0) 
(0.08131726585619788 -0.017240821894720645 0.0) 
(0.09068893760798934 -0.013750612963409988 0.0) 
(0.08897203585505496 -0.006853453664707568 0.0) 
(0.011015153670472259 -0.012340596409252303 0.0) 
(0.011615708058969538 -0.024090400792372266 0.0) 
(0.021005429025510756 -0.02878405468478192 0.0) 
(0.032636495680271216 -0.030674029300411895 0.0) 
(0.04428199879341153 -0.031325847183137 0.0) 
(0.055801997115318816 -0.03131946760398475 0.0) 
(0.06744055909542357 -0.030657001177544677 0.0) 
(0.07905708797151659 -0.028758877840702503 0.0) 
(0.08845418999227976 -0.024052100673484022 0.0) 
(0.08900968591970199 -0.012352867953105258 0.0) 
(0.014896055763896495 -0.0218909868523234 0.0) 
(0.015435631367307344 -0.03574133242184033 0.0) 
(0.024607782362522604 -0.040200899996814685 0.0) 
(0.03483200048102572 -0.04175578108166289 0.0) 
(0.04501275405880428 -0.04251826544659733 0.0) 
(0.055083618846028706 -0.04251508330450813 0.0) 
(0.06527050810064063 -0.041739676114223724 0.0) 
(0.07550770405191902 -0.04016830272634264 0.0) 
(0.08467598143376702 -0.03570144986453648 0.0) 
(0.0855431584440351 -0.02181721906762351 0.0) 
(0.016874727742848726 -0.033540023148649574 0.0) 
(0.021084321490498648 -0.04720362206721714 0.0) 
(0.028363305685669454 -0.047745046400894865 0.0) 
(0.03708359271995959 -0.04942629464533022 0.0) 
(0.04575702222183559 -0.050548730483043876 0.0) 
(0.05433119331799327 -0.05054615689937796 0.0) 
(0.06300950228280798 -0.049420079052827116 0.0) 
(0.07173219566841453 -0.04771680673545152 0.0) 
(0.0790524160652414 -0.04716537236827177 0.0) 
(0.08316232951126798 -0.033394055930302445 0.0) 
)
;

boundaryField
{
	bottom
	{
		type	solidTraction;
		value	nonuniform List<vector>
10
(
(0.018729680798800018 0.0395010152181474 0.0) 
(0.024021589753840347 0.04942401648467341 0.0) 
(0.030535789322339784 0.05218839136413884 0.0) 
(0.03822819323220386 0.0533256700882476 0.0) 
(0.04617345357128949 0.05443885760002022 0.0) 
(0.054080201582825234 0.0544349319556958 0.0) 
(0.062047900358426 0.05330652493083886 0.0) 
(0.06976921098297063 0.052078363675966 0.0) 
(0.07646411335921714 0.0490298177627333 0.0) 
(0.08230728018798039 0.038997420815832254 0.0) 
)
;
	}
	top
	{
		type	solidTraction;
		value	nonuniform List<vector>
10
(
(0.018668479073430052 -0.03960631223929147 0.0) 
(0.024016271147351602 -0.049391535924096716 0.0) 
(0.030535298065038637 -0.05209399397920544 0.0) 
(0.038196984331 -0.053205482544753824 0.0) 
(0.04610994285647449 -0.054312001451368115 0.0) 
(0.053975169060147286 -0.054310540061909954 0.0) 
(0.0618907201861797 -0.05319903285523148 0.0) 
(0.06956174018132265 -0.052069449968675074 0.0) 
(0.0760547720281977 -0.049323612816748935 0.0) 
(0.08131699294810492 -0.039448865199136963 0.0) 
)
;
	}
	left
	{
		type	fixedValue;
		value	uniform (0.0 0.0 0.0);
	}
	right
	{
		type	fixedValue;
		value	uniform (0.1 0.0 0.0);
	}
	frontAndBackPlanes
	{
		type	empty;
	}
}
