/*
 _____     _____     _____ _____ _____ _____    |  High-order Python FOAM
|  |  |___|  _  |_ _|   __|     |  _  |     |   |  Python Version: 3.10
|     | . |   __| | |   __|  |  |     | | | |   |  Code Version: 0.0
|__|__|___|__|  |_  |__|  |_____|__|__|_|_|_|   |  License: GPLv3
                |___|
*/
FoamFile
{
    version     2.0;
    format      ascii;
    class       volScalarField;
    location    "88.0";
    object     p;
}

dimensions      [0 0 0 1 0 0 0]; 

internalField   nonuniform List<scalar>
100
(
385949.9976306504 
-155051.0209974015 
-204228.7021977325 
-153044.62447342885 
-136591.76690584747 
-136858.07018021515 
-153545.668364657 
-202291.685113704 
-125126.97931986634 
361795.22390322684 
1363939.1035073875 
377909.1539446982 
155405.53243762188 
183156.80376121443 
206149.02976147857 
206443.43206495114 
184888.4638364468 
162916.82746823938 
382598.7994856397 
1351831.2045098867 
1474948.642838095 
508859.9359443137 
208559.4953150082 
210021.4573896383 
227571.15724243876 
227796.75779337983 
211244.45107393237 
210761.6198907176 
509767.4405137904 
1467546.8641758442 
1640784.1036434078 
568235.2106463499 
254416.2145491331 
237703.45584353973 
248775.43680182408 
248826.4661879839 
237946.99546811046 
254616.24462195547 
566980.7079153125 
1638185.952239012 
1723383.433757029 
620743.116045706 
289654.3528600066 
267026.8652656379 
274357.53254635684 
274298.51453650265 
266892.7813623582 
289275.3533157701 
619678.4610513892 
1721098.0633874196 
1725464.5246943454 
620639.4060328467 
289207.9536661539 
266669.3776928114 
274103.35442531435 
274032.98398106603 
266547.49805419444 
288814.37329201173 
619417.6636690109 
1722907.0210690196 
1647183.5445319011 
567890.9806051492 
252856.08029554307 
236710.40040941717 
248049.35170756243 
248060.4445241327 
236812.02620078574 
252830.18278141372 
566307.0574807021 
1643552.1700947313 
1487745.1730949206 
507592.5524014548 
205420.2815540908 
208287.06570086835 
226387.21030479367 
226523.47110680988 
208972.00997525913 
206829.92376852845 
506483.00569749554 
1477853.2955646664 
1383186.0952211532 
374573.81639426004 
152328.91333775473 
181195.60855467376 
204838.33977224113 
205032.5874580598 
182349.96458703297 
154522.89742412226 
376343.7075693396 
1363471.8990495245 
383656.43742554326 
-151348.91470744472 
-204462.34208199545 
-152362.13968586174 
-135759.40017510168 
-135918.20066597394 
-152733.177686702 
-204435.6953302184 
-155126.27135967262 
384727.3602253931 
)
;

boundaryField
{
	bottom
	{
		type	pressureTraction;
	}
	top
	{
		type	pressureTraction;
	}
	left
	{
		type	fixedValueFromZeroGrad;
	}
	right
	{
		type	fixedValueFromZeroGrad;
	}
	frontAndBackPlanes
	{
		type	empty;
	}
}
