/*
 _____     _____     _____ _____ _____ _____    |  High-order Python FOAM
|  |  |___|  _  |_ _|   __|     |  _  |     |   |  Python Version: 3.10
|     | . |   __| | |   __|  |  |     | | | |   |  Code Version: 0.0
|__|__|___|__|  |_  |__|  |_____|__|__|_|_|_|   |  License: GPLv3
                |___|
*/
FoamFile
{
    version     2.0;
    format      ascii;
    class       volScalarField;
    location    "88.0";
    object     pCorr;
}

dimensions      [0 0 0 1 0 0 0]; 

internalField   nonuniform List<scalar>
100
(
-697.875831294326 
-726.4519211528906 
-197.85197530241675 
-74.4857438775246 
-302.8231044502621 
-301.80435207455406 
-89.12238122985865 
-220.249235048788 
-561.982481580544 
-784.0606705755472 
2693.415847842287 
-557.2457720100522 
33.36107560568773 
477.2681283122074 
422.72073008563905 
420.8533604338346 
470.37026469828163 
49.50037897909599 
-530.610744417429 
2650.2041784958947 
2415.0367703660327 
-888.0942262695631 
-450.0257749729121 
168.57423407555356 
175.83263485825887 
174.8072645513588 
167.5384809703213 
-446.7543892218847 
-884.5535658631612 
2357.9265504895184 
2630.4665351908047 
-1179.3965911517057 
-668.0555565631711 
18.472356325273893 
62.83789616380007 
62.60192396912721 
18.432045030791624 
-667.6172163938996 
-1185.845920741954 
2593.794217071207 
2781.266744022277 
-1169.5064705355896 
-669.1314141882781 
55.393574044237326 
113.31717188954379 
113.23190198139338 
55.72579660590042 
-668.532558561154 
-1174.3053140403863 
2750.6208349917374 
2788.045760834787 
-1172.1055618675823 
-671.2079985380883 
54.883592872650766 
113.25417167115434 
112.99661179225828 
55.33642296223263 
-669.8750918452083 
-1175.9097823876766 
2761.5683704574867 
2652.1852575532876 
-1191.7754140445213 
-676.3109887438345 
17.410459136057657 
62.41547108933446 
61.99958435988768 
18.128126927126115 
-671.8124295564637 
-1189.7472887596703 
2624.599986750049 
2460.099490238261 
-909.388158123573 
-467.793667658203 
164.00272295298993 
172.48710593980093 
171.59946389255938 
166.44129698550364 
-452.94702080877806 
-897.5055051658867 
2412.030838640836 
2787.859943165322 
-589.5425078856337 
14.062518501730487 
468.85029509042056 
414.73056976719494 
413.5671883169787 
471.4988251286338 
32.60647498761053 
-561.7884810721721 
2686.4270255630768 
-728.9847337035994 
-712.8975644057407 
-198.3149673028825 
-66.87376126425174 
-299.3035570507024 
-300.9333878163952 
-69.31494750548049 
-196.1661049660278 
-723.6167980369487 
-704.6658771207703 
)
;

boundaryField
{
	bottom
	{
		type	fixedValue;
		value	uniform 0.0;
	}
	top
	{
		type	fixedValue;
		value	uniform 0.0;
	}
	left
	{
		type	zeroGradient;
	}
	right
	{
		type	zeroGradient;
	}
	frontAndBackPlanes
	{
		type	empty;
	}
}
