/*
 _____     _____     _____ _____ _____ _____    |  High-order Python FOAM
|  |  |___|  _  |_ _|   __|     |  _  |     |   |  Python Version: 3.10
|     | . |   __| | |   __|  |  |     | | | |   |  Code Version: 0.0
|__|__|___|__|  |_  |__|  |_____|__|__|_|_|_|   |  License: GPLv3
                |___|
*/
FoamFile
{
    version     2.0;
    format      ascii;
    class       volScalarField;
    location    "58.0";
    object     pCorr;
}

dimensions      [0 0 0 1 0 0 0]; 

internalField   nonuniform List<scalar>
100
(
-821.4689369211281 
-2315.0131946389806 
-691.4005099015316 
-236.4012950774362 
-639.0304652722557 
-644.2297389463911 
-263.3509306852338 
-710.6923025447336 
-1996.2498385533981 
-1014.3724828880454 
5461.097011580609 
-1038.7603180592182 
102.87983375688111 
1220.938639578422 
1206.0721087823395 
1199.0282386387767 
1208.3656496188676 
148.79712198585398 
-980.6992648959994 
5375.2149454092905 
5333.109617375799 
-1460.2944705897075 
-900.0802850045377 
454.6908162594548 
671.6261084905253 
667.4170235379879 
449.9759081164091 
-894.4711615688641 
-1452.9493445082562 
5247.4795219679445 
5803.912753482131 
-1899.9698907864451 
-1436.6973285898848 
-7.669056692075465 
349.7558136697608 
347.48934378763386 
-12.386619153200632 
-1443.424776580476 
-1919.4179937874292 
5755.052290725419 
6128.261099812258 
-1870.5106037601215 
-1503.9018269780076 
-24.28310417957584 
386.9189956237908 
385.60287161297873 
-27.68403380093855 
-1511.2142282509521 
-1888.362085318728 
6084.364924955931 
6142.067277860206 
-1874.6344287735246 
-1508.410668315556 
-26.48000239580964 
386.11484980266204 
385.3567481211558 
-27.505400685107418 
-1512.1246588309964 
-1889.4482682210728 
6102.907367979234 
5847.518717783875 
-1917.314764352349 
-1453.7136725515722 
-13.656507866970921 
347.40848320479466 
347.5378668923338 
-11.307613231803765 
-1449.1534838841526 
-1923.1557285178694 
5806.3267396351 
5423.896337389799 
-1492.2658609881769 
-934.5327728736668 
441.48245378285003 
665.2292587717541 
665.6721253027143 
449.9515001383177 
-909.8083964453299 
-1481.0997635899462 
5339.747249422968 
5626.5603125151665 
-1092.2057852585554 
67.61779836737138 
1202.9595842949407 
1193.5637676384567 
1193.8532430687137 
1212.7502189101808 
101.27919413159813 
-1050.7378015416489 
5450.340556890857 
-867.1607166192753 
-2290.515501706093 
-694.0596154101366 
-227.328927441606 
-632.0535439047071 
-632.6244049145737 
-228.00068401175787 
-690.3404447046723 
-2313.8192583844134 
-835.7732866054547 
)
;

boundaryField
{
	bottom
	{
		type	fixedValue;
		value	uniform 0.0;
	}
	top
	{
		type	fixedValue;
		value	uniform 0.0;
	}
	left
	{
		type	zeroGradient;
	}
	right
	{
		type	zeroGradient;
	}
	frontAndBackPlanes
	{
		type	empty;
	}
}
