/*
 _____     _____     _____ _____ _____ _____    |  High-order Python FOAM
|  |  |___|  _  |_ _|   __|     |  _  |     |   |  Python Version: 3.10
|     | . |   __| | |   __|  |  |     | | | |   |  Code Version: 0.0
|__|__|___|__|  |_  |__|  |_____|__|__|_|_|_|   |  License: GPLv3
                |___|
*/
FoamFile
{
    version     2.0;
    format      ascii;
    class       volScalarField;
    location    "8.0";
    object     p;
}

dimensions      [0 0 0 1 0 0 0]; 

internalField   nonuniform List<scalar>
100
(
297360.26216321473 
177149.6320037312 
37770.65753165298 
-15037.868018030647 
-38244.3281638 
-38031.34723199758 
-14303.99984128628 
38860.1222425937 
179371.66825312583 
294047.6247121163 
669538.7787756778 
481510.545739317 
270969.6291236308 
132413.81400510602 
70115.27537188446 
70540.26213132731 
133550.33559388906 
272434.6920289176 
481778.7576279016 
667784.0288668987 
829673.4600908171 
631186.3565336014 
377028.64769288665 
196609.55959191395 
108112.88142595408 
108465.70779597963 
197532.37172285456 
378035.51327179675 
631653.6378558527 
829628.8901782436 
945017.6192309854 
697774.4326821836 
427258.8788306433 
232458.94928641626 
134747.70686455644 
134978.24581655607 
233054.05253672446 
427979.54480914696 
698267.4786549933 
946083.7887681719 
987964.0376679203 
726094.0159309581 
445321.1654237486 
246462.92713183144 
146430.34311505203 
146558.16398782015 
246802.21909364013 
445773.6761349134 
726663.4923258154 
988839.4540194464 
988769.1342520196 
726415.6661793643 
445412.0134552881 
246380.51029297337 
146230.61924862015 
146277.48347363004 
246496.5075083722 
445545.5106314266 
726617.7237248847 
989207.324029978 
947316.5527055629 
698865.5742880554 
427499.45113692863 
232224.78325087958 
134164.02641840803 
134157.42513367537 
232154.4628859851 
427271.78940011864 
698275.1467406133 
947208.6208766099 
833671.6154490833 
632524.1595134779 
377278.77629506873 
196246.32824601623 
107193.86108884164 
107208.53136564595 
196081.25330502028 
376862.0743308704 
631415.4608744355 
831789.0375944006 
673726.5985294353 
482648.94660531566 
271242.8444786469 
131986.77224060387 
69309.38173683506 
69263.18182944617 
131942.42375805732 
270758.59435015306 
481870.48748677096 
670262.9630088598 
298154.22976449615 
178611.64570779476 
38049.31860202549 
-15096.988551372357 
-38608.42961720539 
-38612.88734850874 
-15185.62937652765 
37880.10476539598 
177314.9540043476 
297484.31938163476 
)
;

boundaryField
{
	bottom
	{
		type	pressureTraction;
	}
	top
	{
		type	pressureTraction;
	}
	left
	{
		type	fixedValueFromZeroGrad;
	}
	right
	{
		type	fixedValueFromZeroGrad;
	}
	frontAndBackPlanes
	{
		type	empty;
	}
}
