/*
 _____     _____     _____ _____ _____ _____    |  High-order Python FOAM
|  |  |___|  _  |_ _|   __|     |  _  |     |   |  Python Version: 3.10
|     | . |   __| | |   __|  |  |     | | | |   |  Code Version: 0.0
|__|__|___|__|  |_  |__|  |_____|__|__|_|_|_|   |  License: GPLv3
                |___|
*/
FoamFile
{
    version     2.0;
    format      ascii;
    class       volVectorField;
    location    "94.0";
    object     U;
}

dimensions      [0 1 0 0 0 0 0]; 

internalField   nonuniform List<vector>
100
(
(0.01511781610603 0.036743362105709866 0.0) 
(0.020058882970268 0.04625620918768825 0.0) 
(0.028631436885964184 0.046876360530519016 0.0) 
(0.03739703272388757 0.04943087814441693 0.0) 
(0.04591509034364864 0.050889018747955324 0.0) 
(0.054410773019645704 0.05087251444722586 0.0) 
(0.06296259999264461 0.04937830968881487 0.0) 
(0.07183785824691429 0.046868027901948946 0.0) 
(0.08015421113820326 0.04584553604074491 0.0) 
(0.08596079377370182 0.036058132490706926 0.0) 
(0.016250999631006714 0.02450573734385575 0.0) 
(0.014911219740407515 0.03608887402953631 0.0) 
(0.024782317497382935 0.03986662688082958 0.0) 
(0.035155776179775264 0.04172311035373925 0.0) 
(0.045191851752625065 0.04275950170855198 0.0) 
(0.05513262211129312 0.04273425269460986 0.0) 
(0.06519092209108862 0.0416434476009361 0.0) 
(0.07556927745978426 0.039685498537532934 0.0) 
(0.08544593145351194 0.035694324045358716 0.0) 
(0.08388927894343239 0.02435431410155525 0.0) 
(0.01176744867961725 0.013205937125478323 0.0) 
(0.011052568917893843 0.024425798421159918 0.0) 
(0.021284331059590038 0.02848264290791261 0.0) 
(0.03309532661703186 0.03032854006666896 0.0) 
(0.04450055357603047 0.031082984387982848 0.0) 
(0.055757254403426 0.031052256411946505 0.0) 
(0.06715656832354888 0.03023044631836285 0.0) 
(0.07893403390251665 0.028297591456103013 0.0) 
(0.08905820622442749 0.02422296565805267 0.0) 
(0.08833191549540315 0.013146109371629001 0.0) 
(0.011752936246996993 0.007356886742733312 0.0) 
(0.008372631965198909 0.013896626723165896 0.0) 
(0.01892781523284756 0.01709073188515157 0.0) 
(0.03153257851917689 0.018471818454177495 0.0) 
(0.04395464007671788 0.018992369823261936 0.0) 
(0.05622505583105747 0.018966498564767866 0.0) 
(0.06862646464746862 0.01839382644917732 0.0) 
(0.08117819886866993 0.016975509617040363 0.0) 
(0.09167232624502406 0.013790896685480997 0.0) 
(0.0882092790752652 0.0073377514777959695 0.0) 
(0.011883513711317331 0.002348844086338038 0.0) 
(0.007478956083249279 0.004572145683570656 0.0) 
(0.017789247198903214 0.005686655647652301 0.0) 
(0.03073012781564858 0.006214895976418223 0.0) 
(0.0436543208351361 0.006401035880022171 0.0) 
(0.0564647505923542 0.006385638008833471 0.0) 
(0.06936546811675683 0.006171894087193445 0.0) 
(0.08226460965343046 0.005627288842089824 0.0) 
(0.09253518911888753 0.00452330985439615 0.0) 
(0.08813478432858449 0.002329979265092846 0.0) 
(0.011917788199832887 -0.0022877178979715737 0.0) 
(0.007478998197213947 -0.004557303255273839 0.0) 
(0.017791606514973763 -0.005698504437779409 0.0) 
(0.030728877545186627 -0.006234195457085219 0.0) 
(0.04364405219454467 -0.006429762327728686 0.0) 
(0.05644478140043558 -0.006434162330120896 0.0) 
(0.06933935637784706 -0.006246110267881881 0.0) 
(0.08224028349250373 -0.00571582515430885 0.0) 
(0.09252516827398916 -0.0045826594538897454 0.0) 
(0.08809658699476038 -0.002311058538184754 0.0) 
(0.011793531346502314 -0.00729904549490083 0.0) 
(0.008383103598160314 -0.013890582369913458 0.0) 
(0.018942430347893075 -0.017097057264797735 0.0) 
(0.031530158889248025 -0.01847321269034385 0.0) 
(0.04392395224094225 -0.019001435807662753 0.0) 
(0.05616412824952775 -0.018997431379034344 0.0) 
(0.06854229710580174 -0.0184605787986202 0.0) 
(0.08109813437938873 -0.017076247475015304 0.0) 
(0.09162070982912714 -0.013884896641293627 0.0) 
(0.08818496706551071 -0.007334291966294637 0.0) 
(0.011908869283042346 -0.013181160134097068 0.0) 
(0.0111250313383276 -0.024442226926126107 0.0) 
(0.02131586444960759 -0.02845495412341286 0.0) 
(0.03309240186580533 -0.030290459763515465 0.0) 
(0.0444508867209683 -0.03105081046175663 0.0) 
(0.05565473899520374 -0.031042501495439884 0.0) 
(0.06700723611177484 -0.03026545484731291 0.0) 
(0.07876434458858919 -0.028412523130473957 0.0) 
(0.08895402221892143 -0.024377403635880653 0.0) 
(0.08813347568754794 -0.013201688068331637 0.0) 
(0.01678229550122086 -0.024626684191784366 0.0) 
(0.01498011096807586 -0.03605032929926144 0.0) 
(0.024817997754510986 -0.0397827440764706 0.0) 
(0.03514196518482727 -0.04162295112465817 0.0) 
(0.04511970889929871 -0.04266361060937433 0.0) 
(0.054996984454029334 -0.0426609640272354 0.0) 
(0.06498160337569628 -0.041605979804181424 0.0) 
(0.07531443343519426 -0.03974169225133983 0.0) 
(0.08513716012881371 -0.03599365397784919 0.0) 
(0.0837774660659319 -0.024495854716264802 0.0) 
(0.01509257177145061 -0.03690883717420481 0.0) 
(0.020135945775037457 -0.04616373801645227 0.0) 
(0.028625416005114975 -0.04675529393638448 0.0) 
(0.03736507654378195 -0.04927542468639293 0.0) 
(0.045835998736890274 -0.050744037785028104 0.0) 
(0.05426967314708119 -0.05074296962741139 0.0) 
(0.06274345936193441 -0.04927341018370042 0.0) 
(0.07148040773129517 -0.046725579896315345 0.0) 
(0.08002449682673585 -0.046118036205803487 0.0) 
(0.08493097409704607 -0.036678389425883286 0.0) 
)
;

boundaryField
{
	bottom
	{
		type	solidTraction;
		value	nonuniform List<vector>
10
(
(0.016146642472385467 0.04260338208909191 0.0) 
(0.022657623683040428 0.049151220914351715 0.0) 
(0.03055588877780106 0.05109919894153132 0.0) 
(0.03847835533491556 0.05308747802348724 0.0) 
(0.04627912227444614 0.05464753152821087 0.0) 
(0.05405627196331142 0.05463555504739239 0.0) 
(0.06190922775977536 0.05307291101424967 0.0) 
(0.0698762913981253 0.051059532494979847 0.0) 
(0.07789554602234731 0.04872027726733305 0.0) 
(0.0850578413576062 0.04180111630646117 0.0) 
)
;
	}
	top
	{
		type	solidTraction;
		value	nonuniform List<vector>
10
(
(0.016034227620875037 -0.04275986523507901 0.0) 
(0.02263483460675459 -0.04909946386106968 0.0) 
(0.03054479919712639 -0.05095658996164526 0.0) 
(0.03843252787819896 -0.052915073131568804 0.0) 
(0.04619250613072323 -0.0544778842638927 0.0) 
(0.0539080003885379 -0.05447862788956016 0.0) 
(0.06166748993943167 -0.052913840583741274 0.0) 
(0.0695645092231325 -0.050933819908842125 0.0) 
(0.07743889803806983 -0.04900684916955755 0.0) 
(0.08392024891036827 -0.04251392959111359 0.0) 
)
;
	}
	left
	{
		type	fixedValue;
		value	uniform (0.0 0.0 0.0);
	}
	right
	{
		type	fixedValue;
		value	uniform (0.1 0.0 0.0);
	}
	frontAndBackPlanes
	{
		type	empty;
	}
}
