/*
 _____     _____     _____ _____ _____ _____    |  High-order Python FOAM
|  |  |___|  _  |_ _|   __|     |  _  |     |   |  Python Version: 3.10
|     | . |   __| | |   __|  |  |     | | | |   |  Code Version: 0.0
|__|__|___|__|  |_  |__|  |_____|__|__|_|_|_|   |  License: GPLv3
                |___|
*/
FoamFile
{
    version     2.0;
    format      ascii;
    class       volScalarField;
    location    "3.0";
    object     p;
}

dimensions      [0 0 0 1 0 0 0]; 

internalField   nonuniform List<scalar>
100
(
135244.37555407936 
145722.39542567675 
107107.0024153536 
103204.94040807457 
99592.89389728806 
99617.17579393045 
103292.17369783242 
107257.56120158025 
146071.4243818088 
134632.027876032 
442629.06252531725 
423801.3403368842 
397636.9051866417 
378524.956454827 
368785.2860519624 
368838.30786192266 
378662.78110083786 
397837.19259564555 
423839.7732070964 
442302.7208689515 
718286.1140673041 
704511.351319353 
669841.0782035285 
638796.9847412634 
621611.910877241 
621656.7055889205 
638922.3083900687 
669993.7554092747 
704585.1277637254 
718304.0201167546 
936846.0239001014 
898332.2307069184 
850284.1782683177 
811178.5129846592 
789892.3394928393 
789923.0827286581 
811264.9605606584 
850405.7028964533 
898415.3010906139 
937131.826349514 
1040607.8894902886 
993793.9831722438 
937726.4878198934 
894394.209590782 
871172.6692276875 
871190.0855313375 
894446.330799326 
937809.8015588347 
993923.8779109186 
1040837.2624276378 
1040797.7100810058 
993864.903487131 
937736.1017902617 
894350.5074623879 
871097.5813341853 
871100.5042303896 
894362.3422310308 
937760.2449727483 
993924.0615802417 
1040940.2979735638 
937373.0268103289 
898593.4457105756 
850303.8258345269 
811052.6417952628 
789683.0317136031 
789673.734423678 
811028.5946302209 
850254.6160176444 
898466.4257653018 
937426.6713819923 
719196.7071153749 
704845.9027042161 
669839.2925873769 
638601.3565952099 
621284.6873456805 
621290.5512272484 
638563.6383530054 
669757.1255523171 
704625.8979904108 
718833.5818843285 
443588.24512417533 
424047.428870829 
397638.48910656554 
378337.3322420621 
368488.1712913418 
368461.98088967917 
378290.2665368578 
397534.9437250321 
423942.2769794467 
442875.6294609714 
135438.6274301943 
146033.80564895287 
107117.1858789605 
103130.09656906754 
99466.09921448094 
99453.61950526407 
103099.0954569281 
107096.7264500485 
145761.93234445978 
135310.1255770773 
)
;

boundaryField
{
	bottom
	{
		type	pressureTraction;
	}
	top
	{
		type	pressureTraction;
	}
	left
	{
		type	fixedValueFromZeroGrad;
	}
	right
	{
		type	fixedValueFromZeroGrad;
	}
	frontAndBackPlanes
	{
		type	empty;
	}
}
