/*
 _____     _____     _____ _____ _____ _____    |  High-order Python FOAM
|  |  |___|  _  |_ _|   __|     |  _  |     |   |  Python Version: 3.10
|     | . |   __| | |   __|  |  |     | | | |   |  Code Version: 0.0
|__|__|___|__|  |_  |__|  |_____|__|__|_|_|_|   |  License: GPLv3
                |___|
*/
FoamFile
{
    version     2.0;
    format      ascii;
    class       volScalarField;
    location    "3.0";
    object     pCorr;
}

dimensions      [0 0 0 1 0 0 0]; 

internalField   nonuniform List<scalar>
100
(
45148.27352422576 
35426.0966304674 
16992.186360337455 
10665.51768689073 
7317.89327811835 
7332.568273932025 
10719.294725988475 
17072.786229734756 
35630.38180791232 
44747.40730646773 
112350.16752543916 
92321.7990398445 
65537.21724387063 
46147.898323377754 
36786.6636965057 
36819.73905293833 
46234.00560535293 
65643.81037600034 
92300.39353589345 
112112.66560304436 
152617.54888712018 
128936.70984868475 
93167.82451986805 
65358.32522491439 
50885.148350186704 
50910.60057403293 
65423.62925481056 
93230.04150081979 
128943.92327348341 
152589.95177454612 
181074.00394067113 
147643.1768699036 
106117.50204178538 
73865.3022013088 
56865.26521771605 
56878.986819451246 
73900.42053613905 
106158.94203164066 
147658.8085546557 
181208.45710156683 
192521.03350524892 
155542.62067164376 
110653.38644224043 
76424.02144359563 
58396.93021356855 
58400.63384716169 
76434.11097623604 
110669.77668554823 
155583.9254523215 
192620.5075161671 
192640.84781809678 
155587.76328911568 
110660.65868398437 
76399.43910014261 
58352.69763374107 
58346.434795459674 
76382.0885126821 
110637.16448781332 
155582.19942894834 
192683.84071060678 
181407.98378727215 
147804.0505768765 
106134.43584960744 
73796.08573215634 
56739.52082365586 
56726.51256806005 
73753.92350442887 
106060.4449442046 
147681.25432406957 
181391.32084286143 
153197.75247285792 
129129.55604457583 
93176.7006279402 
65254.37943937711 
50695.836860524 
50686.817685843555 
65201.065714317156 
93078.80463905913 
128942.81480579718 
152925.7509342316 
112935.33736095385 
92484.39651897764 
65545.67597958991 
46035.26791292775 
36616.39548145286 
36599.53554553788 
46002.16142373373 
65447.4414459768 
92360.25154765445 
112455.74612845069 
45273.42358464766 
35621.97446300365 
17005.179253010192 
10623.10477256513 
7234.927075573922 
7229.598657574665 
10598.083405302603 
16967.405875121134 
35426.62247962344 
45177.29351389458 
)
;

boundaryField
{
	bottom
	{
		type	fixedValue;
		value	uniform 0.0;
	}
	top
	{
		type	fixedValue;
		value	uniform 0.0;
	}
	left
	{
		type	zeroGradient;
	}
	right
	{
		type	zeroGradient;
	}
	frontAndBackPlanes
	{
		type	empty;
	}
}
