/*
 _____     _____     _____ _____ _____ _____    |  High-order Python FOAM
|  |  |___|  _  |_ _|   __|     |  _  |     |   |  Python Version: 3.10
|     | . |   __| | |   __|  |  |     | | | |   |  Code Version: 0.0
|__|__|___|__|  |_  |__|  |_____|__|__|_|_|_|   |  License: GPLv3
                |___|
*/
FoamFile
{
    version     2.0;
    format      ascii;
    class       volVectorField;
    location    "3.0";
    object     U;
}

dimensions      [0 1 0 0 0 0 0]; 

internalField   nonuniform List<vector>
100
(
(0.014931130957320885 0.01026467281897207 0.0) 
(0.027760973863398385 0.026299559221419553 0.0) 
(0.034572137859119716 0.03584368350617975 0.0) 
(0.04121521734682698 0.041502675297824254 0.0) 
(0.047123654002896066 0.044218620721286975 0.0) 
(0.052929532328883824 0.04420206527130898 0.0) 
(0.058848048010613274 0.0414519993211449 0.0) 
(0.06551619425237873 0.03576491689697003 0.0) 
(0.0723627961996673 0.02618246949589252 0.0) 
(0.08535386824188711 0.010290597666439945 0.0) 
(0.01119369508270115 0.01079248484513967 0.0) 
(0.019573859382920687 0.0223523426365393 0.0) 
(0.029187793657700262 0.03133965685244838 0.0) 
(0.037785327863794425 0.03662404575204673 0.0) 
(0.0459961878919949 0.039113654338321556 0.0) 
(0.054075575732450885 0.03909877680977796 0.0) 
(0.062290425824550896 0.036581075261139503 0.0) 
(0.07089007483813839 0.03127482600644151 0.0) 
(0.08049266278473015 0.02229597643255895 0.0) 
(0.08878383060770023 0.010776573663691297 0.0) 
(0.011446149176302706 0.008101709940235458 0.0) 
(0.017755954329055863 0.01748915516491549 0.0) 
(0.026613177013352907 0.02406626599651458 0.0) 
(0.03592627959903385 0.028302601315208762 0.0) 
(0.0453144923703369 0.030293257562183953 0.0) 
(0.054720559273676826 0.03028173594575755 0.0) 
(0.06410436933556865 0.02827125604775769 0.0) 
(0.07340771278566241 0.024024970174013126 0.0) 
(0.08224491921804475 0.017457251904577444 0.0) 
(0.08857442922868307 0.008095411907100556 0.0) 
(0.012527487979141386 0.0052353825269391115 0.0) 
(0.01720573466148544 0.011069168858954391 0.0) 
(0.025643173339438864 0.015127071573173603 0.0) 
(0.03505075344007309 0.01777431251739191 0.0) 
(0.044970333179093 0.019059410321493234 0.0) 
(0.05503451408252263 0.01905178906167433 0.0) 
(0.06494895313731638 0.017754094855903582 0.0) 
(0.07434614220124933 0.015102915138855286 0.0) 
(0.0827726719257574 0.011051758767480123 0.0) 
(0.08737725556011997 0.005229813046634684 0.0) 
(0.01328706064214101 0.0017761394820685107 0.0) 
(0.017147089108879385 0.0037747446640973106 0.0) 
(0.025324921466391884 0.005137491526798338 0.0) 
(0.03473910370750395 0.006032144457847954 0.0) 
(0.04483783317576258 0.006468959155107379 0.0) 
(0.05515095467411654 0.006464050243565511 0.0) 
(0.06524569921980902 0.006019305386768069 0.0) 
(0.07465403658427665 0.005121648459525609 0.0) 
(0.08282976906734682 0.0037657276218138118 0.0) 
(0.08671017865305237 0.0017732393386697143 0.0) 
(0.013325986478941362 -0.001778115333216506 0.0) 
(0.017157463842432375 -0.0038016132583342244 0.0) 
(0.025335718977463343 -0.005185225156159502 0.0) 
(0.0347459155554743 -0.006093111810330384 0.0) 
(0.04484015715494761 -0.006540677515960456 0.0) 
(0.05514918591050258 -0.006543876882502385 0.0) 
(0.06524020908075955 -0.006101860977579137 0.0) 
(0.07464522212386097 -0.005197269845300403 0.0) 
(0.08282280281019538 -0.0038169616825267376 0.0) 
(0.08667130988771538 -0.001786432852601068 0.0) 
(0.012535356090795483 -0.005238205230978558 0.0) 
(0.01724936515407921 -0.011100013571985456 0.0) 
(0.02567787533787335 -0.01517191050457694 0.0) 
(0.035071090589792686 -0.017830013860910432 0.0) 
(0.04497735016546719 -0.0191281304375232 0.0) 
(0.05502970362269914 -0.01913016450211175 0.0) 
(0.06493259848311089 -0.01783610973000036 0.0) 
(0.07431990169150228 -0.015180270672681882 0.0) 
(0.08273599920383597 -0.011111511116439187 0.0) 
(0.08738637218065835 -0.005246283544747101 0.0) 
(0.011586775043701697 -0.008106437394202142 0.0) 
(0.01784831134267203 -0.017523029959597373 0.0) 
(0.026669994191328966 -0.02409608109150701 0.0) 
(0.03595930318977445 -0.028349926707885185 0.0) 
(0.045330858922280094 -0.030358527799057785 0.0) 
(0.054712457424344045 -0.03035696631760294 0.0) 
(0.06407679920686571 -0.02835445772591744 0.0) 
(0.07336402211893417 -0.024104631602361447 0.0) 
(0.08219135246218018 -0.017524089774685496 0.0) 
(0.08840952221329082 -0.008106666817117587 0.0) 
(0.011447871210859615 -0.010783490294246946 0.0) 
(0.019679350797772794 -0.022346636553070093 0.0) 
(0.029258325437794202 -0.03135517502462689 0.0) 
(0.03782849508959832 -0.03666435632352379 0.0) 
(0.0460085878330282 -0.03917109943884674 0.0) 
(0.054065783501027594 -0.03917484642743737 0.0) 
(0.06225327872591796 -0.036668429715206736 0.0) 
(0.07082510677114079 -0.031369600291450826 0.0) 
(0.08040377411782897 -0.02237001819422071 0.0) 
(0.08880697554312574 -0.010794271554643678 0.0) 
(0.01496810213520613 -0.010257521324265932 0.0) 
(0.02787231246044553 -0.026252432095061874 0.0) 
(0.03465976373148497 -0.03585048876878601 0.0) 
(0.04127738698235995 -0.041535058690944426 0.0) 
(0.047156484282389104 -0.04427507294949627 0.0) 
(0.052928485087616245 -0.04427688889546165 0.0) 
(0.05880980240454251 -0.04154103222219987 0.0) 
(0.06543167522989035 -0.03586064268208938 0.0) 
(0.07222732394327806 -0.026309656256229663 0.0) 
(0.0850420710491065 -0.010266154440725168 0.0) 
)
;

boundaryField
{
	bottom
	{
		type	solidTraction;
		value	nonuniform List<vector>
10
(
(0.017613424625689957 0.009880181783782173 0.0) 
(0.02958409166972218 0.024945003366194252 0.0) 
(0.037372946879238415 0.036438950838989334 0.0) 
(0.04279081588498779 0.04281458448311008 0.0) 
(0.04767337987778141 0.045808783218935244 0.0) 
(0.05237330384108557 0.04579054269087479 0.0) 
(0.05727084140009623 0.04275981133282668 0.0) 
(0.06272663824177978 0.0363472049778429 0.0) 
(0.07062024414987955 0.02485952219391453 0.0) 
(0.08273916577410691 0.009900290691220366 0.0) 
)
;
	}
	top
	{
		type	solidTraction;
		value	nonuniform List<vector>
10
(
(0.017617355190662442 -0.009851491807369871 0.0) 
(0.02965508865021133 -0.024903148055049094 0.0) 
(0.037468076467289856 -0.03643244008713491 0.0) 
(0.0428622152090084 -0.04284419362736258 0.0) 
(0.04771451424166474 -0.04586528795794325 0.0) 
(0.05237620156657812 -0.045867182389872384 0.0) 
(0.057229632816132005 -0.04285136962515809 0.0) 
(0.06262902556263929 -0.03645443518656275 0.0) 
(0.07040494654537412 -0.02495098656463984 0.0) 
(0.08236265531371265 -0.009877754257813403 0.0) 
)
;
	}
	left
	{
		type	fixedValue;
		value	uniform (0.0 0.0 0.0);
	}
	right
	{
		type	fixedValue;
		value	uniform (0.1 0.0 0.0);
	}
	frontAndBackPlanes
	{
		type	empty;
	}
}
