/*
 _____     _____     _____ _____ _____ _____    |  High-order Python FOAM
|  |  |___|  _  |_ _|   __|     |  _  |     |   |  Python Version: 3.10
|     | . |   __| | |   __|  |  |     | | | |   |  Code Version: 0.0
|__|__|___|__|  |_  |__|  |_____|__|__|_|_|_|   |  License: GPLv3
                |___|
*/
FoamFile
{
    version     2.0;
    format      ascii;
    class       volScalarField;
    location    "66.0";
    object     pCorr;
}

dimensions      [0 0 0 1 0 0 0]; 

internalField   nonuniform List<scalar>
100
(
-849.2838711504436 
-1695.6931879777667 
-453.7080425978955 
-156.94910445091676 
-540.025672172118 
-543.0353997341011 
-181.12911930312274 
-477.0905978924286 
-1424.7530076349258 
-1005.6516049692068 
4527.428793295118 
-854.3274958836373 
129.7426351243311 
975.9198342701159 
906.7094112284415 
901.1451937476236 
963.8111343848701 
163.80664448106793 
-806.6076570951664 
4456.7323213747195 
4343.178095945441 
-1271.500314326654 
-712.0011252040213 
368.5472373018714 
473.4700418173518 
470.2292902338638 
364.55927214898975 
-707.9847937363329 
-1265.9851764299237 
4264.819830231202 
4724.349582047092 
-1686.3812179031117 
-1147.5982221713296 
21.31930599276045 
235.88305830672232 
234.40738664302404 
18.35949911431805 
-1151.9097787309654 
-1701.933575315249 
4677.654851303138 
4984.905574454635 
-1671.244150894355 
-1191.312050982504 
32.4955230834712 
290.05127117171736 
289.3195217588137 
30.780414872204744 
-1195.549949537372 
-1684.8217184522273 
4943.954734840223 
4996.4847266218 
-1674.8786763865255 
-1194.9622616777299 
30.945955869274243 
289.51326374022005 
289.01860768908705 
30.717006969896712 
-1196.5926179579096 
-1685.983044147577 
4960.445136347701 
4761.123179560046 
-1702.5004781049063 
-1161.6557111235054 
17.221216608001043 
234.15884022384753 
234.03746460957848 
18.978232626003752 
-1156.904823740663 
-1705.3948674577948 
4723.413941025112 
4419.490678375324 
-1300.6344649522184 
-741.004375054078 
358.3860524419099 
467.7145825543323 
467.4433635154471 
364.3912226426414 
-719.3099541344116 
-1288.517916065705 
4346.307090277009 
4671.602111786547 
-901.6105875159885 
99.57364987374905 
960.9547964474498 
894.882821794048 
894.2827790501799 
967.6764682922587 
128.3334567712319 
-863.4973179071371 
4518.090167558748 
-891.4358901098153 
-1674.3877207575442 
-455.33388426828907 
-148.06747014693903 
-534.7604481760087 
-535.9357991339573 
-149.7472588833911 
-452.2276601252814 
-1693.5054782778152 
-861.0929550754278 
)
;

boundaryField
{
	bottom
	{
		type	fixedValue;
		value	uniform 0.0;
	}
	top
	{
		type	fixedValue;
		value	uniform 0.0;
	}
	left
	{
		type	zeroGradient;
	}
	right
	{
		type	zeroGradient;
	}
	frontAndBackPlanes
	{
		type	empty;
	}
}
