/*
 _____     _____     _____ _____ _____ _____    |  High-order Python FOAM
|  |  |___|  _  |_ _|   __|     |  _  |     |   |  Python Version: 3.10
|     | . |   __| | |   __|  |  |     | | | |   |  Code Version: 0.0
|__|__|___|__|  |_  |__|  |_____|__|__|_|_|_|   |  License: GPLv3
                |___|
*/
FoamFile
{
    version     2.0;
    format      ascii;
    class       volVectorField;
    location    "66.0";
    object     U;
}

dimensions      [0 1 0 0 0 0 0]; 

internalField   nonuniform List<vector>
100
(
(0.015745468512461756 0.035755418823250826 0.0) 
(0.020313472437250502 0.046539260010494826 0.0) 
(0.028606578783769376 0.04706196882518746 0.0) 
(0.03739588620462823 0.04948967584204842 0.0) 
(0.04592904406701529 0.05098287243309922 0.0) 
(0.054373844373115626 0.050970668317466175 0.0) 
(0.06293384264506571 0.04944662497093505 0.0) 
(0.07180896285094686 0.047033331934280026 0.0) 
(0.07990138074833497 0.04611450039122233 0.0) 
(0.08528200000430851 0.03516839446537284 0.0) 
(0.015683910186461245 0.023557807584155096 0.0) 
(0.015125493098403612 0.03601989806191031 0.0) 
(0.02473600686017587 0.03999155191612403 0.0) 
(0.03507393083244089 0.041802224723579307 0.0) 
(0.04516173133061375 0.04281379542075603 0.0) 
(0.05514027445865093 0.042790590182392424 0.0) 
(0.06524761442916746 0.041725059547768194 0.0) 
(0.07559080022604306 0.03981183522248772 0.0) 
(0.08520221190032395 0.03565481689756873 0.0) 
(0.08442897780309676 0.023421553522593126 0.0) 
(0.011486206280257533 0.012938713020323692 0.0) 
(0.011250035673312151 0.024341514047442708 0.0) 
(0.021185315649521426 0.028617702471416883 0.0) 
(0.03295226144277652 0.03048818072579999 0.0) 
(0.044448706842618764 0.03123000596474725 0.0) 
(0.05579159829425913 0.03120027891826937 0.0) 
(0.0672814238031672 0.030392991888081766 0.0) 
(0.07901428024589192 0.02844234449120828 0.0) 
(0.08885118324789211 0.02415458939619841 0.0) 
(0.08860247185174536 0.012886928081046295 0.0) 
(0.011520973617991415 0.007194955663519133 0.0) 
(0.008709057743470099 0.013869227772893762 0.0) 
(0.018830692335328227 0.017158764981261176 0.0) 
(0.03135645411898956 0.018577383635978325 0.0) 
(0.04388799663843385 0.019099117971199328 0.0) 
(0.05627868730769059 0.019073879952069592 0.0) 
(0.06879023534054486 0.01850205781265464 0.0) 
(0.0812665813118321 0.017049157477482688 0.0) 
(0.09133275749923286 0.013770287893054468 0.0) 
(0.08843525986458387 0.0071752756262403496 0.0) 
(0.011656761923313766 0.00229863919825487 0.0) 
(0.007859082704869742 0.004556918846952757 0.0) 
(0.017709027208026737 0.005704420569744913 0.0) 
(0.030544284902492728 0.006245107121147671 0.0) 
(0.04358206063526968 0.006433770596800964 0.0) 
(0.056527277022653255 0.00641852457817537 0.0) 
(0.06954320242759902 0.006202658815169387 0.0) 
(0.08234049293723163 0.005646197810992145 0.0) 
(0.09215518898549098 0.004508959234638819 0.0) 
(0.08835709491859756 0.002279058305516545 0.0) 
(0.011689655049007824 -0.002245143430472139 0.0) 
(0.007860040943196655 -0.004543530838186849 0.0) 
(0.017711334192962475 -0.005715447967860696 0.0) 
(0.03054286302414359 -0.00626371696688487 0.0) 
(0.04357228659580538 -0.006462282653552597 0.0) 
(0.05650852421968494 -0.00646719414497559 0.0) 
(0.06951885644518109 -0.006277295123012859 0.0) 
(0.08231779843507514 -0.0057354535129845105 0.0) 
(0.09214545847148758 -0.00457121844361102 0.0) 
(0.08832148470588645 -0.002268688756267601 0.0) 
(0.011558898566352893 -0.007145011794998576 0.0) 
(0.008722259822585223 -0.013864454620023671 0.0) 
(0.018844356006012614 -0.01716444594097626 0.0) 
(0.03135350920332319 -0.01857924833175477 0.0) 
(0.04385895257865371 -0.019109092244175188 0.0) 
(0.05622147177470723 -0.01910598674550689 0.0) 
(0.06871189646881362 -0.018569894270992628 0.0) 
(0.0811923843056945 -0.01714975050784486 0.0) 
(0.09128318306920737 -0.013864161801451176 0.0) 
(0.08841691730986499 -0.007178184558781195 0.0) 
(0.011622236064575549 -0.012920763425052034 0.0) 
(0.011322635537398776 -0.02435754210445644 0.0) 
(0.021215222070191834 -0.028593108752785947 0.0) 
(0.032948952941878884 -0.03045399548163798 0.0) 
(0.044402285672515515 -0.03120159929899122 0.0) 
(0.05569565300868553 -0.0311940036947623 0.0) 
(0.0671423596017962 -0.030432064739320586 0.0) 
(0.0788585631613113 -0.02855730244017266 0.0) 
(0.0887541898295484 -0.024302829728768925 0.0) 
(0.08841325720406311 -0.01293803342583667 0.0) 
(0.016178023654914993 -0.02365974294982567 0.0) 
(0.01519854968187461 -0.03598788539634879 0.0) 
(0.024770431812862165 -0.03991757621028083 0.0) 
(0.03506138925275876 -0.04171266489498131 0.0) 
(0.04509533229482756 -0.04272718083466276 0.0) 
(0.055014687721485094 -0.042724653539123844 0.0) 
(0.06505461211723423 -0.04169663598430789 0.0) 
(0.07535594176100001 -0.03988007582957999 0.0) 
(0.08491868046849771 -0.0359372657003169 0.0) 
(0.08434040358030424 -0.023552164578450756 0.0) 
(0.015732926990368334 -0.035900690411391635 0.0) 
(0.020387148823904095 -0.04645739827768579 0.0) 
(0.028604094999229588 -0.04695320892342132 0.0) 
(0.037367570147073634 -0.049349353032796764 0.0) 
(0.04585700155396692 -0.05085101371890273 0.0) 
(0.05424360637895001 -0.050849906148482026 0.0) 
(0.0627360784340342 -0.04934690387672136 0.0) 
(0.0714985707346271 -0.046925286643431624 0.0) 
(0.07976511796404552 -0.04641462319755816 0.0) 
(0.08429772852888222 -0.035702030185313656 0.0) 
)
;

boundaryField
{
	bottom
	{
		type	solidTraction;
		value	nonuniform List<vector>
10
(
(0.01702312552958839 0.04169373447018545 0.0) 
(0.0230760573388625 0.04919433429305979 0.0) 
(0.030605560565059763 0.05132578367949395 0.0) 
(0.03850721002156671 0.05317904441840693 0.0) 
(0.046298318227023405 0.0547480971432089 0.0) 
(0.054012016678615035 0.05474075420655662 0.0) 
(0.061843301936332105 0.05316778104562005 0.0) 
(0.06978024502784141 0.051262712844117285 0.0) 
(0.07745638431936926 0.0487703670150374 0.0) 
(0.08413434405922945 0.040994230070316405 0.0) 
)
;
	}
	top
	{
		type	solidTraction;
		value	nonuniform List<vector>
10
(
(0.016930065418148014 -0.04183064752668188 0.0) 
(0.02305877997046597 -0.04914733539227448 0.0) 
(0.030597960363529457 -0.05119716901885806 0.0) 
(0.0384668994472252 -0.05302291407890802 0.0) 
(0.046219565773945384 -0.05459286294701594 0.0) 
(0.05387682262322793 -0.05459333909946669 0.0) 
(0.061629747552145994 -0.05302106774590592 0.0) 
(0.06950755096183142 -0.05117512454775294 0.0) 
(0.07701451720663394 -0.049064400692976046 0.0) 
(0.08303763796376698 -0.04161783615744487 0.0) 
)
;
	}
	left
	{
		type	fixedValue;
		value	uniform (0.0 0.0 0.0);
	}
	right
	{
		type	fixedValue;
		value	uniform (0.1 0.0 0.0);
	}
	frontAndBackPlanes
	{
		type	empty;
	}
}
