/*
 _____     _____     _____ _____ _____ _____    |  High-order Python FOAM
|  |  |___|  _  |_ _|   __|     |  _  |     |   |  Python Version: 3.10
|     | . |   __| | |   __|  |  |     | | | |   |  Code Version: 0.0
|__|__|___|__|  |_  |__|  |_____|__|__|_|_|_|   |  License: GPLv3
                |___|
*/
FoamFile
{
    version     2.0;
    format      ascii;
    class       volVectorField;
    location    "1.0";
    object     U;
}

dimensions      [0 1 0 0 0 0 0]; 

internalField   nonuniform List<vector>
500
(
(-4.370870035163432e-08 -3.351154314837975e-08 0.0) 
(-1.3181444296787393e-07 -6.386704910716381e-08 0.0) 
(-2.1973607245352574e-07 -7.545451290012956e-08 0.0) 
(-3.087037211329161e-07 -7.899401831945539e-08 0.0) 
(-3.9863653788742754e-07 -7.94091511591883e-08 0.0) 
(-4.891626473596603e-07 -7.899208934733943e-08 0.0) 
(-5.799897425026717e-07 -7.854284572489754e-08 0.0) 
(-6.709453299247882e-07 -7.8248326327153e-08 0.0) 
(-7.619452309178653e-07 -7.80929218137353e-08 0.0) 
(-8.529549280866012e-07 -7.802304087924929e-08 0.0) 
(-9.439631658558474e-07 -7.79958602698012e-08 0.0) 
(-1.034968125654195e-06 -7.798634213954566e-08 0.0) 
(-1.125970551848751e-06 -7.798264289672947e-08 0.0) 
(-1.2169715444931545e-06 -7.798002097192623e-08 0.0) 
(-1.3079718615376407e-06 -7.79770503886608e-08 0.0) 
(-1.398971914953745e-06 -7.797354398358268e-08 0.0) 
(-1.4899718909349361e-06 -7.796965502228044e-08 0.0) 
(-1.5809718584384179e-06 -7.79655563007937e-08 0.0) 
(-1.6719718357214934e-06 -7.796136161531413e-08 0.0) 
(-1.7629718233629577e-06 -7.795713069511936e-08 0.0) 
(-1.8539718176346806e-06 -7.79528899612246e-08 0.0) 
(-1.9449718153354652e-06 -7.79486487360492e-08 0.0) 
(-2.035971814517958e-06 -7.7944409249434e-08 0.0) 
(-2.1269718142168635e-06 -7.794017136047443e-08 0.0) 
(-2.2179718140331307e-06 -7.793593445768905e-08 0.0) 
(-2.3089718138360253e-06 -7.793169805090373e-08 0.0) 
(-2.399971813601672e-06 -7.792746185303399e-08 0.0) 
(-2.4909718133382076e-06 -7.792322572580166e-08 0.0) 
(-2.581971813057525e-06 -7.791898961308954e-08 0.0) 
(-2.6729718127694793e-06 -7.791475349797028e-08 0.0) 
(-2.7639718124783e-06 -7.791051737906884e-08 0.0) 
(-2.8549718121851754e-06 -7.790628125693925e-08 0.0) 
(-2.945971811892661e-06 -7.790204513344019e-08 0.0) 
(-3.036971811599421e-06 -7.789780900982149e-08 0.0) 
(-3.1279718113073733e-06 -7.78935728872786e-08 0.0) 
(-3.218971811014355e-06 -7.788933676632448e-08 0.0) 
(-3.3099718107217315e-06 -7.788510064557108e-08 0.0) 
(-3.4009718104297317e-06 -7.78808645268458e-08 0.0) 
(-3.491971810137085e-06 -7.787662840950901e-08 0.0) 
(-3.582971809845157e-06 -7.787239229327222e-08 0.0) 
(-3.6739718095531265e-06 -7.786815617902276e-08 0.0) 
(-3.7649718092611594e-06 -7.786392006613612e-08 0.0) 
(-3.855971808969106e-06 -7.785968395494833e-08 0.0) 
(-3.946971808677275e-06 -7.785544784554377e-08 0.0) 
(-4.037971808384921e-06 -7.785121173822677e-08 0.0) 
(-4.128971808092153e-06 -7.78469756314615e-08 0.0) 
(-4.21997180779982e-06 -7.784273952567171e-08 0.0) 
(-4.310971807507279e-06 -7.783850342124171e-08 0.0) 
(-4.401971807215e-06 -7.783426731835577e-08 0.0) 
(-4.492971806922492e-06 -7.783003121719392e-08 0.0) 
(-4.58397180662956e-06 -7.782579511707472e-08 0.0) 
(-4.67497180633661e-06 -7.782155901793786e-08 0.0) 
(-4.765971806043563e-06 -7.781732292000595e-08 0.0) 
(-4.856971805749937e-06 -7.78130868229354e-08 0.0) 
(-4.9479718054563e-06 -7.780885072603965e-08 0.0) 
(-5.038971805162917e-06 -7.78046146298572e-08 0.0) 
(-5.129971804869375e-06 -7.780037853454475e-08 0.0) 
(-5.220971804576082e-06 -7.77961424398305e-08 0.0) 
(-5.311971804283132e-06 -7.779190634645277e-08 0.0) 
(-5.40297180399004e-06 -7.778767025495239e-08 0.0) 
(-5.493971803696545e-06 -7.778343416451795e-08 0.0) 
(-5.584971803402436e-06 -7.777919807462003e-08 0.0) 
(-5.675971803107962e-06 -7.777496198396565e-08 0.0) 
(-5.7669718028145145e-06 -7.777072589384182e-08 0.0) 
(-5.85797180252064e-06 -7.77664898050742e-08 0.0) 
(-5.948971802226903e-06 -7.776225371665443e-08 0.0) 
(-6.039971801933595e-06 -7.775801762930835e-08 0.0) 
(-6.130971801639946e-06 -7.775378154330272e-08 0.0) 
(-6.22197180134604e-06 -7.774954545775805e-08 0.0) 
(-6.312971801052357e-06 -7.774530937279328e-08 0.0) 
(-6.4039718007585114e-06 -7.774107328857246e-08 0.0) 
(-6.494971800464626e-06 -7.773683720440235e-08 0.0) 
(-6.58597180017104e-06 -7.773260112077715e-08 0.0) 
(-6.676971799877758e-06 -7.772836503793726e-08 0.0) 
(-6.7679717995845875e-06 -7.772412895628168e-08 0.0) 
(-6.858971799291575e-06 -7.771989287606373e-08 0.0) 
(-6.949971798998442e-06 -7.771565679694057e-08 0.0) 
(-7.040971798705048e-06 -7.771142071897675e-08 0.0) 
(-7.1319717984111625e-06 -7.770718464131007e-08 0.0) 
(-7.22297179811782e-06 -7.770294856415254e-08 0.0) 
(-7.3139717978240824e-06 -7.769871248811527e-08 0.0) 
(-7.404971797530461e-06 -7.769447641237577e-08 0.0) 
(-7.4959717972370896e-06 -7.769024033766896e-08 0.0) 
(-7.586971796943492e-06 -7.76860042639465e-08 0.0) 
(-7.67797179665007e-06 -7.768176819127972e-08 0.0) 
(-7.768971796356e-06 -7.767753211914584e-08 0.0) 
(-7.859971796062084e-06 -7.767329604689043e-08 0.0) 
(-7.950971795768553e-06 -7.766905997602923e-08 0.0) 
(-8.041971795474305e-06 -7.766482390596445e-08 0.0) 
(-8.13297179517949e-06 -7.766058783556881e-08 0.0) 
(-8.223971794885891e-06 -7.76563517661142e-08 0.0) 
(-8.314971794591918e-06 -7.765211570011243e-08 0.0) 
(-8.40597179429856e-06 -7.764787964180733e-08 0.0) 
(-8.49697179400291e-06 -7.764364359859783e-08 0.0) 
(-8.587971793700814e-06 -7.763940758161682e-08 0.0) 
(-8.678971793376692e-06 -7.763517159871025e-08 0.0) 
(-8.769971793000712e-06 -7.763093562388098e-08 0.0) 
(-8.860971792518216e-06 -7.762669952432993e-08 0.0) 
(-8.951971792051463e-06 -7.762246300525097e-08 0.0) 
(-9.042971792093039e-06 -7.761822620198378e-08 0.0) 
(-3.763855565669012e-08 -1.3104328073534998e-08 0.0) 
(-1.2226538930217482e-07 -3.04383035592705e-08 0.0) 
(-2.1304674431956357e-07 -3.780011334638046e-08 0.0) 
(-3.05036134472471e-07 -3.9889399318741184e-08 0.0) 
(-3.9696357530540374e-07 -4.0038565390023966e-08 0.0) 
(-4.885351529964653e-07 -3.969983474393689e-08 0.0) 
(-5.798209584945767e-07 -3.9374452069554776e-08 0.0) 
(-6.709400279705291e-07 -3.916846252496858e-08 0.0) 
(-7.619795543955378e-07 -3.906135712062911e-08 0.0) 
(-8.529868615018422e-07 -3.901375822591192e-08 0.0) 
(-9.43984591274295e-07 -3.899476968493776e-08 0.0) 
(-1.0349809822169087e-06 -3.89874761639501e-08 0.0) 
(-1.1259784015195573e-06 -3.898384726664608e-08 0.0) 
(-1.2169769831509125e-06 -3.898080436502295e-08 0.0) 
(-1.3079763342748905e-06 -3.897745721921435e-08 0.0) 
(-1.3989760896860266e-06 -3.8973720586868166e-08 0.0) 
(-1.4899760225271943e-06 -3.8969717062125364e-08 0.0) 
(-1.5809760182437985e-06 -3.896557085479742e-08 0.0) 
(-1.671976029566759e-06 -3.8961360339807016e-08 0.0) 
(-1.7629760400140667e-06 -3.895712649695126e-08 0.0) 
(-1.8539760463679192e-06 -3.895288668964007e-08 0.0) 
(-1.9449760494119518e-06 -3.8948646901663694e-08 0.0) 
(-2.0359760505144237e-06 -3.894440844204536e-08 0.0) 
(-2.1269760506872227e-06 -3.8940171116136054e-08 0.0) 
(-2.2179760504858805e-06 -3.8935934471506135e-08 0.0) 
(-2.3089760501686116e-06 -3.893169816207874e-08 0.0) 
(-2.3999760498344335e-06 -3.892746199065333e-08 0.0) 
(-2.4909760495114383e-06 -3.89232258647062e-08 0.0) 
(-2.5819760492020612e-06 -3.891898974746691e-08 0.0) 
(-2.6729760489004676e-06 -3.891475362840578e-08 0.0) 
(-2.763976048603581e-06 -3.8910517506366055e-08 0.0) 
(-2.854976048310087e-06 -3.8906281382885525e-08 0.0) 
(-2.945976048016072e-06 -3.890204525924884e-08 0.0) 
(-3.0369760477227994e-06 -3.889780913539509e-08 0.0) 
(-3.127976047428584e-06 -3.8893573012552436e-08 0.0) 
(-3.218976047135641e-06 -3.8889336891595966e-08 0.0) 
(-3.309976046842315e-06 -3.888510077084555e-08 0.0) 
(-3.400976046548236e-06 -3.8880864652449096e-08 0.0) 
(-3.4919760462547434e-06 -3.887662853513526e-08 0.0) 
(-3.582976045960683e-06 -3.887239241894117e-08 0.0) 
(-3.673976045666811e-06 -3.886815630465438e-08 0.0) 
(-3.764976045372875e-06 -3.8863920191773425e-08 0.0) 
(-3.855976045079049e-06 -3.8859684080538186e-08 0.0) 
(-3.946976044785165e-06 -3.885544797071785e-08 0.0) 
(-4.037976044491767e-06 -3.885121186375441e-08 0.0) 
(-4.1289760441983875e-06 -3.884697575694852e-08 0.0) 
(-4.219976043904481e-06 -3.88427396512385e-08 0.0) 
(-4.310976043610914e-06 -3.883850354661987e-08 0.0) 
(-4.401976043316885e-06 -3.883426744421629e-08 0.0) 
(-4.492976043022801e-06 -3.883003134280518e-08 0.0) 
(-4.583976042729106e-06 -3.8825795242697714e-08 0.0) 
(-4.6749760424351296e-06 -3.882155914369425e-08 0.0) 
(-4.765976042140849e-06 -3.8817323045783054e-08 0.0) 
(-4.856976041846872e-06 -3.881308694872683e-08 0.0) 
(-4.94797604155254e-06 -3.8808850852089885e-08 0.0) 
(-5.038976041258186e-06 -3.880461475546903e-08 0.0) 
(-5.129976040964222e-06 -3.8800378660408625e-08 0.0) 
(-5.220976040669741e-06 -3.879614256598826e-08 0.0) 
(-5.311976040374916e-06 -3.8791906472395235e-08 0.0) 
(-5.4029760400799626e-06 -3.878767038147411e-08 0.0) 
(-5.493976039785291e-06 -3.8783434290228914e-08 0.0) 
(-5.5849760394917584e-06 -3.87791981998777e-08 0.0) 
(-5.6759760391985525e-06 -3.8774962109511867e-08 0.0) 
(-5.7669760389041066e-06 -3.877072601955723e-08 0.0) 
(-5.8579760386099105e-06 -3.8766489931066456e-08 0.0) 
(-5.948976038315517e-06 -3.87622538425947e-08 0.0) 
(-6.0399760380209246e-06 -3.875801775515165e-08 0.0) 
(-6.130976037726482e-06 -3.8753781669483027e-08 0.0) 
(-6.221976037432059e-06 -3.8749545583787776e-08 0.0) 
(-6.3129760371374715e-06 -3.8745309498787146e-08 0.0) 
(-6.403976036843112e-06 -3.874107341438654e-08 0.0) 
(-6.49497603654893e-06 -3.87368373303974e-08 0.0) 
(-6.585976036254454e-06 -3.8732601246746715e-08 0.0) 
(-6.676976035959884e-06 -3.872836516392104e-08 0.0) 
(-6.767976035665643e-06 -3.872412908200562e-08 0.0) 
(-6.858976035370948e-06 -3.871989300252026e-08 0.0) 
(-6.9499760350762854e-06 -3.871565692276102e-08 0.0) 
(-7.040976034782351e-06 -3.8711420844428404e-08 0.0) 
(-7.13197603448897e-06 -3.870718476673025e-08 0.0) 
(-7.222976034194988e-06 -3.8702948689653063e-08 0.0) 
(-7.313976033901361e-06 -3.869871261367381e-08 0.0) 
(-7.404976033607314e-06 -3.869447653828973e-08 0.0) 
(-7.49597603331263e-06 -3.869024046382631e-08 0.0) 
(-7.58697603301784e-06 -3.868600439028999e-08 0.0) 
(-7.67797603272269e-06 -3.86817683175159e-08 0.0) 
(-7.768976032428208e-06 -3.867753224535778e-08 0.0) 
(-7.859976032133229e-06 -3.8673296173499e-08 0.0) 
(-7.950976031837422e-06 -3.866906010275017e-08 0.0) 
(-8.041976031542183e-06 -3.866482403245902e-08 0.0) 
(-8.132976031247295e-06 -3.866058796215668e-08 0.0) 
(-8.223976030950925e-06 -3.865635189250385e-08 0.0) 
(-8.314976030655473e-06 -3.8652115824940437e-08 0.0) 
(-8.405976030361247e-06 -3.864787976248716e-08 0.0) 
(-8.496976030073337e-06 -3.8643643710452286e-08 0.0) 
(-8.587976029799101e-06 -3.8639407676262675e-08 0.0) 
(-8.678976029556009e-06 -3.863517166737682e-08 0.0) 
(-8.769976029369324e-06 -3.8630935668249286e-08 0.0) 
(-8.860976029266779e-06 -3.862669958789239e-08 0.0) 
(-8.95197602920422e-06 -3.862246326957305e-08 0.0) 
(-9.042976028991387e-06 -3.8618226245795046e-08 0.0) 
(-3.650138488764702e-08 -2.0466013397359404e-11 0.0) 
(-1.1972912042954514e-07 -2.8140094257449114e-11 0.0) 
(-2.1058724841846477e-07 -3.1285296656509853e-11 0.0) 
(-3.035002335362962e-07 -2.489592908274334e-11 0.0) 
(-3.961726584224942e-07 -2.0664252052752944e-11 0.0) 
(-4.881936862693272e-07 -1.6942682214890055e-11 0.0) 
(-5.797026492418656e-07 -1.2538574789085364e-11 0.0) 
(-6.709150635160501e-07 -8.19994036512932e-12 0.0) 
(-7.619853453926486e-07 -3.7589132373738655e-12 0.0) 
(-8.529989248064336e-07 4.759877599345477e-13 0.0) 
(-9.439951458691089e-07 4.745492647740827e-12 0.0) 
(-1.0349889220265874e-06 8.986266112777088e-12 0.0) 
(-1.1259844217855528e-06 1.3227695237631086e-11 0.0) 
(-1.2169819332157771e-06 1.746649924733786e-11 0.0) 
(-1.30798078980801e-06 2.170371838477463e-11 0.0) 
(-1.3989803568014981e-06 2.5940281573722974e-11 0.0) 
(-1.4899802368530778e-06 3.017651646072627e-11 0.0) 
(-1.5809802291268734e-06 3.4412570666982687e-11 0.0) 
(-1.6719802487708379e-06 3.864875474205277e-11 0.0) 
(-1.7629802671882368e-06 4.2884895408034263e-11 0.0) 
(-1.8539802785504725e-06 4.712102524319737e-11 0.0) 
(-1.944980284129797e-06 5.135715892577301e-11 0.0) 
(-2.035980286307076e-06 5.5593297858006806e-11 0.0) 
(-2.1269802868402186e-06 5.982943684261466e-11 0.0) 
(-2.2179802867114078e-06 6.406557412804048e-11 0.0) 
(-2.3089802863767955e-06 6.830170957433574e-11 0.0) 
(-2.3999802860111065e-06 7.253784367649888e-11 0.0) 
(-2.4909802856644058e-06 7.677397599487804e-11 0.0) 
(-2.581980285340491e-06 8.101010656416062e-11 0.0) 
(-2.672980285032035e-06 8.524623535092855e-11 0.0) 
(-2.7639802847318244e-06 8.948236390329995e-11 0.0) 
(-2.854980284435527e-06 9.371849020558129e-11 0.0) 
(-2.9459802841407636e-06 9.79546144918117e-11 0.0) 
(-3.0369802838458467e-06 1.0219073842227504e-10 0.0) 
(-3.127980283550953e-06 1.0642686163707494e-10 0.0) 
(-3.218980283256083e-06 1.1066298299660801e-10 0.0) 
(-3.3099802829611024e-06 1.1489910289709456e-10 0.0) 
(-3.400980282665862e-06 1.1913522131427917e-10 0.0) 
(-3.4919802823707735e-06 1.2337133866024987e-10 0.0) 
(-3.5829802820757507e-06 1.2760745488518764e-10 0.0) 
(-3.6739802817803624e-06 1.318435688718713e-10 0.0) 
(-3.7649802814849233e-06 1.3607968185821896e-10 0.0) 
(-3.8559802811895575e-06 1.4031579307827466e-10 0.0) 
(-3.946980280894454e-06 1.4455190300851753e-10 0.0) 
(-4.037980280599389e-06 1.4878801063633646e-10 0.0) 
(-4.12898028030452e-06 1.5302411697399145e-10 0.0) 
(-4.2199802800095815e-06 1.5726022275912972e-10 0.0) 
(-4.310980279714458e-06 1.614963270845655e-10 0.0) 
(-4.401980279419265e-06 1.657324298658073e-10 0.0) 
(-4.492980279124378e-06 1.6996853106243574e-10 0.0) 
(-4.583980278829367e-06 1.7420463137285347e-10 0.0) 
(-4.674980278534466e-06 1.7844073025521996e-10 0.0) 
(-4.7659802782394575e-06 1.8267682807459402e-10 0.0) 
(-4.856980277944212e-06 1.8691292492667137e-10 0.0) 
(-4.9479802776488885e-06 1.9114902151075542e-10 0.0) 
(-5.038980277353572e-06 1.953851185382612e-10 0.0) 
(-5.129980277058438e-06 1.9962121323462645e-10 0.0) 
(-5.2209802767631315e-06 2.0385730732456906e-10 0.0) 
(-5.311980276467612e-06 2.0809340065898473e-10 0.0) 
(-5.4029802761721e-06 2.123294922859408e-10 0.0) 
(-5.493980275877275e-06 2.1656558392644942e-10 0.0) 
(-5.584980275582659e-06 2.2080167463624753e-10 0.0) 
(-5.675980275287991e-06 2.2503776462160737e-10 0.0) 
(-5.766980274992974e-06 2.292738544536212e-10 0.0) 
(-5.857980274698089e-06 2.3350994270298046e-10 0.0) 
(-5.9489802744030805e-06 2.3774603114660145e-10 0.0) 
(-6.0399802741077324e-06 2.419821185361958e-10 0.0) 
(-6.130980273812648e-06 2.46218204356205e-10 0.0) 
(-6.221980273517671e-06 2.504542898301086e-10 0.0) 
(-6.3129802732224015e-06 2.546903749219276e-10 0.0) 
(-6.403980272927211e-06 2.5892645928013656e-10 0.0) 
(-6.494980272631964e-06 2.6316254359391607e-10 0.0) 
(-6.5859802723367885e-06 2.673986265172513e-10 0.0) 
(-6.676980272041514e-06 2.716347098195543e-10 0.0) 
(-6.767980271746176e-06 2.758707911996881e-10 0.0) 
(-6.858980271450945e-06 2.801068713158436e-10 0.0) 
(-6.949980271155797e-06 2.843429511854133e-10 0.0) 
(-7.040980270861007e-06 2.88579029859257e-10 0.0) 
(-7.131980270566331e-06 2.9281510748947004e-10 0.0) 
(-7.222980270271641e-06 2.970511847235364e-10 0.0) 
(-7.313980269976992e-06 3.0128726055833083e-10 0.0) 
(-7.4049802696822754e-06 3.0552333551198594e-10 0.0) 
(-7.495980269387048e-06 3.097594095466368e-10 0.0) 
(-7.586980269091387e-06 3.1399548290564657e-10 0.0) 
(-7.677980268795806e-06 3.1823155583489293e-10 0.0) 
(-7.768980268500396e-06 3.224676280601888e-10 0.0) 
(-7.859980268204763e-06 3.2670369936681786e-10 0.0) 
(-7.950980267908975e-06 3.309397702720062e-10 0.0) 
(-8.041980267613328e-06 3.351758406063672e-10 0.0) 
(-8.132980267317573e-06 3.3941191075542807e-10 0.0) 
(-8.223980267021255e-06 3.436479806779044e-10 0.0) 
(-8.314980266725079e-06 3.4788405099025575e-10 0.0) 
(-8.405980266431805e-06 3.5212012114916174e-10 0.0) 
(-8.496980266148386e-06 3.5635619189408223e-10 0.0) 
(-8.587980265890191e-06 3.6059226327541564e-10 0.0) 
(-8.678980265685932e-06 3.6482833483303773e-10 0.0) 
(-8.76998026557811e-06 3.690644072005822e-10 0.0) 
(-8.86098026558799e-06 3.7330047974145075e-10 0.0) 
(-8.951980265675552e-06 3.775365517668997e-10 0.0) 
(-9.042980265546177e-06 3.8177262517601677e-10 0.0) 
(-3.7629615455371616e-08 1.3054958587058892e-08 0.0) 
(-1.2225359561755662e-07 3.0355402443947946e-08 0.0) 
(-2.130434335306321e-07 3.774209540479164e-08 0.0) 
(-3.050400968266238e-07 3.984184730327026e-08 0.0) 
(-3.9696954574043393e-07 3.999808158104804e-08 0.0) 
(-4.88543228472552e-07 3.966623853147896e-08 0.0) 
(-5.79829418139086e-07 3.9349496358239333e-08 0.0) 
(-6.709486397888697e-07 3.91519526859145e-08 0.0) 
(-7.619878760098587e-07 3.905386997230896e-08 0.0) 
(-8.52995277746392e-07 3.90147201484236e-08 0.0) 
(-9.439930066823969e-07 3.900427495457596e-08 0.0) 
(-1.0349894297339203e-06 3.900545891886133e-08 0.0) 
(-1.1259868647905258e-06 3.90103073234454e-08 0.0) 
(-1.2169854522980736e-06 3.901573910088913e-08 0.0) 
(-1.307984805487816e-06 3.9020865269879926e-08 0.0) 
(-1.3989845615504269e-06 3.9025601336636976e-08 0.0) 
(-1.489984494552258e-06 3.9030070272798106e-08 0.0) 
(-1.5809844906486985e-06 3.903439601854655e-08 0.0) 
(-1.6719845019235815e-06 3.903865783164221e-08 0.0) 
(-1.7629845123241994e-06 3.904289627806679e-08 0.0) 
(-1.8539845186617757e-06 3.904712873686391e-08 0.0) 
(-1.944984521701565e-06 3.9051361215279984e-08 0.0) 
(-2.035984522798331e-06 3.905559503609705e-08 0.0) 
(-2.126984522965258e-06 3.905982998844715e-08 0.0) 
(-2.21798452276001e-06 3.90640656189734e-08 0.0) 
(-2.3089845224393316e-06 3.906830158081476e-08 0.0) 
(-2.399984522101837e-06 3.9072537677143235e-08 0.0) 
(-2.490984521775604e-06 3.907677381578139e-08 0.0) 
(-2.5819845214627685e-06 3.908100995978703e-08 0.0) 
(-2.6729845211581315e-06 3.908524609905452e-08 0.0) 
(-2.7639845208588985e-06 3.9089482233058927e-08 0.0) 
(-2.8549845205618577e-06 3.9093718362718694e-08 0.0) 
(-2.9459845202656033e-06 3.909795448789877e-08 0.0) 
(-3.036984519969565e-06 3.910219061181547e-08 0.0) 
(-3.1279845196732254e-06 3.910642673506539e-08 0.0) 
(-3.2189845193765484e-06 3.9110662856150486e-08 0.0) 
(-3.3099845190799124e-06 3.911489897586687e-08 0.0) 
(-3.4009845187832498e-06 3.91191350949374e-08 0.0) 
(-3.491984518487175e-06 3.9123371212171e-08 0.0) 
(-3.5829845181906347e-06 3.9127607327934214e-08 0.0) 
(-3.673984517893938e-06 3.913184344189224e-08 0.0) 
(-3.764984517596592e-06 3.9136079554813816e-08 0.0) 
(-3.855984517299974e-06 3.914031566632471e-08 0.0) 
(-3.9469845170038795e-06 3.914455177632295e-08 0.0) 
(-4.0379845167072305e-06 3.914878788402756e-08 0.0) 
(-4.128984516411042e-06 3.9153023990781305e-08 0.0) 
(-4.2199845161149724e-06 3.915726009601542e-08 0.0) 
(-4.31098451581763e-06 3.916149620026347e-08 0.0) 
(-4.401984515521796e-06 3.9165732303392884e-08 0.0) 
(-4.492984515225886e-06 3.9169968404719796e-08 0.0) 
(-4.583984514929632e-06 3.917420450490018e-08 0.0) 
(-4.674984514634013e-06 3.917844060378687e-08 0.0) 
(-4.765984514337494e-06 3.918267670126941e-08 0.0) 
(-4.856984514041689e-06 3.9186912798207014e-08 0.0) 
(-4.947984513745242e-06 3.919114889436786e-08 0.0) 
(-5.0389845134489745e-06 3.919538499179355e-08 0.0) 
(-5.129984513152418e-06 3.919962108661189e-08 0.0) 
(-5.220984512856777e-06 3.920385718062078e-08 0.0) 
(-5.3119845125605815e-06 3.920809327367848e-08 0.0) 
(-5.402984512264422e-06 3.921232936579453e-08 0.0) 
(-5.4939845119690435e-06 3.921656545794883e-08 0.0) 
(-5.584984511673595e-06 3.922080154839428e-08 0.0) 
(-5.6759845113776985e-06 3.922503763826944e-08 0.0) 
(-5.766984511081758e-06 3.9229273727893877e-08 0.0) 
(-5.857984510786161e-06 3.923350981662954e-08 0.0) 
(-5.948984510490911e-06 3.923774590452018e-08 0.0) 
(-6.039984510194432e-06 3.924198199171969e-08 0.0) 
(-6.130984509898681e-06 3.924621807830125e-08 0.0) 
(-6.221984509603018e-06 3.9250454163042675e-08 0.0) 
(-6.312984509307216e-06 3.925469024824224e-08 0.0) 
(-6.403984509011516e-06 3.9258926332529284e-08 0.0) 
(-6.494984508714906e-06 3.9263162416583024e-08 0.0) 
(-6.5859845084188e-06 3.9267398500096303e-08 0.0) 
(-6.676984508123193e-06 3.92716345830111e-08 0.0) 
(-6.7679845078271955e-06 3.927587066443216e-08 0.0) 
(-6.858984507530907e-06 3.928010674491616e-08 0.0) 
(-6.949984507235237e-06 3.928434282484641e-08 0.0) 
(-7.040984506939417e-06 3.928857890365818e-08 0.0) 
(-7.131984506643641e-06 3.929281498142259e-08 0.0) 
(-7.222984506348054e-06 3.9297051058592284e-08 0.0) 
(-7.3139845060528075e-06 3.9301287134463474e-08 0.0) 
(-7.404984505757407e-06 3.930552320908333e-08 0.0) 
(-7.495984505461359e-06 3.930975928266001e-08 0.0) 
(-7.5869845051647635e-06 3.931399535591356e-08 0.0) 
(-7.677984504868865e-06 3.9318231428804255e-08 0.0) 
(-7.768984504572723e-06 3.932246750096708e-08 0.0) 
(-7.85998450427666e-06 3.932670357224394e-08 0.0) 
(-7.950984503980475e-06 3.933093964314826e-08 0.0) 
(-8.041984503685076e-06 3.933517571367896e-08 0.0) 
(-8.132984503389363e-06 3.933941178387397e-08 0.0) 
(-8.223984503094332e-06 3.934364785408793e-08 0.0) 
(-8.314984502798272e-06 3.934788392636225e-08 0.0) 
(-8.405984502503622e-06 3.9352120004384506e-08 0.0) 
(-8.496984502215356e-06 3.9356356094002856e-08 0.0) 
(-8.587984501941383e-06 3.936059220255247e-08 0.0) 
(-8.678984501698425e-06 3.936482833721844e-08 0.0) 
(-8.769984501512255e-06 3.936906448261007e-08 0.0) 
(-8.860984501409574e-06 3.937330054743326e-08 0.0) 
(-8.951984501348628e-06 3.937753637428592e-08 0.0) 
(-9.042984501137835e-06 3.938177149442284e-08 0.0) 
(-4.36983491333516e-08 3.3413827301501594e-08 0.0) 
(-1.3181664063825848e-07 6.380929574956105e-08 0.0) 
(-2.197509771118985e-07 7.539975920381941e-08 0.0) 
(-3.0871831921527344e-07 7.894957048708684e-08 0.0) 
(-3.986518769541882e-07 7.93703541704953e-08 0.0) 
(-4.891787831257405e-07 7.895984704789724e-08 0.0) 
(-5.800065408553959e-07 7.851811146478558e-08 0.0) 
(-6.709623115470375e-07 7.823190975056048e-08 0.0) 
(-7.619622346622494e-07 7.808525669356784e-08 0.0) 
(-8.529718526357985e-07 7.802404552818156e-08 0.0) 
(-9.439801043732873e-07 7.800536304009467e-08 0.0) 
(-1.0349850599139438e-06 7.800434188002828e-08 0.0) 
(-1.1259874924082998e-06 7.800911069448148e-08 0.0) 
(-1.2169884876426092e-06 7.801495885119468e-08 0.0) 
(-1.3079888056838575e-06 7.802045955260927e-08 0.0) 
(-1.3989888593893986e-06 7.802542509174269e-08 0.0) 
(-1.4899888354176588e-06 7.803000835882246e-08 0.0) 
(-1.5809888029744024e-06 7.803438166688243e-08 0.0) 
(-1.6719887803348633e-06 7.803865908150202e-08 0.0) 
(-1.762988767951211e-06 7.804290045362282e-08 0.0) 
(-1.8539887622063987e-06 7.804713200110592e-08 0.0) 
(-1.944988759901988e-06 7.805136304926641e-08 0.0) 
(-2.0359887590799003e-06 7.805559583976781e-08 0.0) 
(-2.126988758771698e-06 7.805983022961618e-08 0.0) 
(-2.21798875858029e-06 7.806406560268602e-08 0.0) 
(-2.3089887583759546e-06 7.806830146741574e-08 0.0) 
(-2.399988758134969e-06 7.80725375374476e-08 0.0) 
(-2.4909887578648813e-06 7.807677367473165e-08 0.0) 
(-2.5819887575780574e-06 7.808100982331141e-08 0.0) 
(-2.6729887572842666e-06 7.808524596699398e-08 0.0) 
(-2.7639887569869196e-06 7.808948210388308e-08 0.0) 
(-2.854988756688498e-06 7.809371823461531e-08 0.0) 
(-2.9459887563901943e-06 7.809795436078175e-08 0.0) 
(-3.036988756092386e-06 7.810219048482608e-08 0.0) 
(-3.1279887557946125e-06 7.810642660754106e-08 0.0) 
(-3.2189887554968924e-06 7.811066272871774e-08 0.0) 
(-3.309988755199205e-06 7.811489884856165e-08 0.0) 
(-3.400988754901588e-06 7.811913496761874e-08 0.0) 
(-3.491988754603404e-06 7.812337108500837e-08 0.0) 
(-3.5829887543054192e-06 7.81276072004852e-08 0.0) 
(-3.6739887540073577e-06 7.813184331432832e-08 0.0) 
(-3.764988753709792e-06 7.813607942719568e-08 0.0) 
(-3.855988753411688e-06 7.814031553918012e-08 0.0) 
(-3.94698875311315e-06 7.814455164899021e-08 0.0) 
(-4.037988752815272e-06 7.814878775690545e-08 0.0) 
(-4.12898875251731e-06 7.815302386366738e-08 0.0) 
(-4.219988752219237e-06 7.815725996862654e-08 0.0) 
(-4.310988751922275e-06 7.816149607296238e-08 0.0) 
(-4.401988751624158e-06 7.816573217646417e-08 0.0) 
(-4.492988751326359e-06 7.81699682777341e-08 0.0) 
(-4.5839887510290965e-06 7.817420437798354e-08 0.0) 
(-4.6749887507314e-06 7.817844047667219e-08 0.0) 
(-4.765988750434782e-06 7.818267657424199e-08 0.0) 
(-4.856988750137776e-06 7.818691267111549e-08 0.0) 
(-4.947988749841675e-06 7.819114876747581e-08 0.0) 
(-5.038988749544978e-06 7.819538486418364e-08 0.0) 
(-5.129988749248322e-06 7.819962095954748e-08 0.0) 
(-5.220988748951134e-06 7.820385705370411e-08 0.0) 
(-5.311988748654383e-06 7.820809314660093e-08 0.0) 
(-5.402988748357856e-06 7.821232923914745e-08 0.0) 
(-5.493988748060926e-06 7.82165653312255e-08 0.0) 
(-5.584988747764068e-06 7.822080142162121e-08 0.0) 
(-5.67598874746771e-06 7.822503751141416e-08 0.0) 
(-5.766988747171313e-06 7.822927360102226e-08 0.0) 
(-5.857988746874691e-06 7.823350969004785e-08 0.0) 
(-5.948988746577713e-06 7.823774577762122e-08 0.0) 
(-6.039988746281627e-06 7.824198186472694e-08 0.0) 
(-6.130988745984832e-06 7.824621795126585e-08 0.0) 
(-6.221988745688266e-06 7.825045403648585e-08 0.0) 
(-6.312988745391974e-06 7.825469012139485e-08 0.0) 
(-6.403988745095387e-06 7.825892620549182e-08 0.0) 
(-6.4949887447994055e-06 7.826316228932821e-08 0.0) 
(-6.5859887445028826e-06 7.82673983732679e-08 0.0) 
(-6.676988744205831e-06 7.827163445609354e-08 0.0) 
(-6.767988743908796e-06 7.827587053743839e-08 0.0) 
(-6.858988743612093e-06 7.828010661800255e-08 0.0) 
(-6.949988743314911e-06 7.828434269811824e-08 0.0) 
(-7.040988743017864e-06 7.82885787767916e-08 0.0) 
(-7.131988742720868e-06 7.829281485471197e-08 0.0) 
(-7.222988742423816e-06 7.829705093206566e-08 0.0) 
(-7.313988742126522e-06 7.830128700786493e-08 0.0) 
(-7.404988741829401e-06 7.830552308228072e-08 0.0) 
(-7.495988741532847e-06 7.830975915557375e-08 0.0) 
(-7.5869887412368525e-06 7.831399522875009e-08 0.0) 
(-7.67798874094037e-06 7.831823130175715e-08 0.0) 
(-7.768988740644262e-06 7.832246737389255e-08 0.0) 
(-7.85998874034828e-06 7.83267034451629e-08 0.0) 
(-7.950988740052728e-06 7.833093951627013e-08 0.0) 
(-8.041988739756866e-06 7.833517558697336e-08 0.0) 
(-8.132988739461881e-06 7.833941165742979e-08 0.0) 
(-8.223988739167006e-06 7.834364772794498e-08 0.0) 
(-8.31498873887404e-06 7.834788380119313e-08 0.0) 
(-8.405988738581882e-06 7.83521198833714e-08 0.0) 
(-8.49698873828795e-06 7.83563559820471e-08 0.0) 
(-8.587988737987171e-06 7.83605921079473e-08 0.0) 
(-8.678988737664448e-06 7.836482826875956e-08 0.0) 
(-8.769988737289129e-06 7.836906443838591e-08 0.0) 
(-8.86098873680696e-06 7.837330048350785e-08 0.0) 
(-8.951988736340307e-06 7.837753611402632e-08 0.0) 
(-9.042988736383346e-06 7.838177145289478e-08 0.0) 
)
;

boundaryField
{
	bottom
	{
		type	zeroGradient;
	}
	top
	{
		type	zeroGradient;
	}
	left
	{
		type	fixedValue;
		value	uniform (0.0 0.0 0.0);
	}
	right
	{
		type	solidTraction;
	}
	frontAndBackPlanes
	{
		type	empty;
	}
}
