/*
 _____     _____     _____ _____ _____ _____    |  High-order Python FOAM
|  |  |___|  _  |_ _|   __|     |  _  |     |   |  Python Version: 3.10
|     | . |   __| | |   __|  |  |     | | | |   |  Code Version: 0.0
|__|__|___|__|  |_  |__|  |_____|__|__|_|_|_|   |  License: GPLv3
                |___|
*/
FoamFile
{
    version     2.0;
    format      ascii;
    class       volVectorField;
    location    "1.0";
    object     U;
}

dimensions      [0 1 0 0 0 0 0]; 

internalField   nonuniform List<vector>
500
(
(0.0 -4.999999999999572e-05 0.0) 
(0.0 -0.00014999999999998099 0.0) 
(0.0 -0.0002499999999999668 0.0) 
(0.0 -0.00034999999999995316 0.0) 
(0.0 -0.0004499999999999396 0.0) 
(0.0 -0.0005499999999999261 0.0) 
(0.0 -0.0006499999999999123 0.0) 
(0.0 -0.0007499999999998985 0.0) 
(0.0 -0.0008499999999998852 0.0) 
(0.0 -0.0009499999999998715 0.0) 
(0.0 -0.0010499999999998581 0.0) 
(0.0 -0.001149999999999846 0.0) 
(0.0 -0.0012499999999998328 0.0) 
(0.0 -0.0013499999999998197 0.0) 
(0.0 -0.0014499999999998073 0.0) 
(0.0 -0.0015499999999997935 0.0) 
(0.0 -0.0016499999999997808 0.0) 
(0.0 -0.0017499999999997685 0.0) 
(0.0 -0.0018499999999997546 0.0) 
(0.0 -0.0019499999999997406 0.0) 
(0.0 -0.002049999999999728 0.0) 
(0.0 -0.0021499999999997138 0.0) 
(0.0 -0.0022499999999996976 0.0) 
(0.0 -0.0023499999999996844 0.0) 
(0.0 -0.0024499999999996708 0.0) 
(0.0 -0.0025499999999996593 0.0) 
(0.0 -0.002649999999999647 0.0) 
(0.0 -0.002749999999999635 0.0) 
(0.0 -0.002849999999999621 0.0) 
(0.0 -0.0029499999999996083 0.0) 
(0.0 -0.0030499999999996003 0.0) 
(0.0 -0.0031499999999995898 0.0) 
(0.0 -0.0032499999999995766 0.0) 
(0.0 -0.003349999999999564 0.0) 
(0.0 -0.0034499999999995515 0.0) 
(0.0 -0.003549999999999539 0.0) 
(0.0 -0.0036499999999995265 0.0) 
(0.0 -0.0037499999999995176 0.0) 
(0.0 -0.003849999999999504 0.0) 
(0.0 -0.003949999999999497 0.0) 
(0.0 -0.004049999999999483 0.0) 
(0.0 -0.004149999999999472 0.0) 
(0.0 -0.004249999999999463 0.0) 
(0.0 -0.0043499999999994515 0.0) 
(0.0 -0.004449999999999441 0.0) 
(0.0 -0.004549999999999429 0.0) 
(0.0 -0.004649999999999418 0.0) 
(0.0 -0.004749999999999407 0.0) 
(0.0 -0.0048499999999993965 0.0) 
(0.0 -0.004949999999999392 0.0) 
(0.0 -0.005049999999999389 0.0) 
(0.0 -0.005149999999999381 0.0) 
(0.0 -0.005249999999999383 0.0) 
(0.0 -0.005349999999999385 0.0) 
(0.0 -0.005449999999999391 0.0) 
(0.0 -0.005549999999999396 0.0) 
(0.0 -0.005649999999999406 0.0) 
(0.0 -0.005749999999999413 0.0) 
(0.0 -0.005849999999999425 0.0) 
(0.0 -0.0059499999999994314 0.0) 
(0.0 -0.006049999999999445 0.0) 
(0.0 -0.006149999999999447 0.0) 
(0.0 -0.006249999999999453 0.0) 
(0.0 -0.0063499999999994585 0.0) 
(0.0 -0.006449999999999467 0.0) 
(0.0 -0.006549999999999465 0.0) 
(0.0 -0.006649999999999474 0.0) 
(0.0 -0.006749999999999478 0.0) 
(0.0 -0.006849999999999483 0.0) 
(0.0 -0.006949999999999478 0.0) 
(0.0 -0.007049999999999485 0.0) 
(0.0 -0.0071499999999994875 0.0) 
(0.0 -0.007249999999999502 0.0) 
(0.0 -0.007349999999999504 0.0) 
(0.0 -0.007449999999999512 0.0) 
(0.0 -0.007549999999999521 0.0) 
(0.0 -0.00764999999999952 0.0) 
(0.0 -0.007749999999999532 0.0) 
(0.0 -0.007849999999999545 0.0) 
(0.0 -0.007949999999999558 0.0) 
(0.0 -0.008049999999999568 0.0) 
(0.0 -0.008149999999999576 0.0) 
(0.0 -0.008249999999999594 0.0) 
(0.0 -0.008349999999999623 0.0) 
(0.0 -0.008449999999999633 0.0) 
(0.0 -0.008549999999999662 0.0) 
(0.0 -0.008649999999999672 0.0) 
(0.0 -0.008749999999999696 0.0) 
(0.0 -0.008849999999999717 0.0) 
(0.0 -0.008949999999999743 0.0) 
(0.0 -0.009049999999999761 0.0) 
(0.0 -0.009149999999999789 0.0) 
(0.0 -0.009249999999999819 0.0) 
(0.0 -0.00934999999999984 0.0) 
(0.0 -0.009449999999999872 0.0) 
(0.0 -0.009549999999999894 0.0) 
(0.0 -0.009649999999999917 0.0) 
(0.0 -0.009749999999999941 0.0) 
(0.0 -0.009849999999999977 0.0) 
(0.0 -0.009950000000000007 0.0) 
(0.0 -4.9999999999993734e-05 0.0) 
(0.0 -0.00014999999999998042 0.0) 
(0.0 -0.0002499999999999664 0.0) 
(0.0 -0.0003499999999999527 0.0) 
(0.0 -0.00044999999999993943 0.0) 
(0.0 -0.0005499999999999262 0.0) 
(0.0 -0.0006499999999999121 0.0) 
(0.0 -0.0007499999999998982 0.0) 
(0.0 -0.0008499999999998849 0.0) 
(0.0 -0.0009499999999998717 0.0) 
(0.0 -0.0010499999999998588 0.0) 
(0.0 -0.001149999999999846 0.0) 
(0.0 -0.0012499999999998333 0.0) 
(0.0 -0.0013499999999998207 0.0) 
(0.0 -0.0014499999999998076 0.0) 
(0.0 -0.0015499999999997944 0.0) 
(0.0 -0.0016499999999997808 0.0) 
(0.0 -0.0017499999999997682 0.0) 
(0.0 -0.0018499999999997544 0.0) 
(0.0 -0.0019499999999997393 0.0) 
(0.0 -0.002049999999999729 0.0) 
(0.0 -0.0021499999999997146 0.0) 
(0.0 -0.0022499999999997 0.0) 
(0.0 -0.002349999999999686 0.0) 
(0.0 -0.002449999999999671 0.0) 
(0.0 -0.0025499999999996597 0.0) 
(0.0 -0.002649999999999647 0.0) 
(0.0 -0.0027499999999996347 0.0) 
(0.0 -0.0028499999999996193 0.0) 
(0.0 -0.0029499999999996105 0.0) 
(0.0 -0.003049999999999599 0.0) 
(0.0 -0.003149999999999588 0.0) 
(0.0 -0.0032499999999995757 0.0) 
(0.0 -0.003349999999999565 0.0) 
(0.0 -0.0034499999999995533 0.0) 
(0.0 -0.0035499999999995405 0.0) 
(0.0 -0.003649999999999526 0.0) 
(0.0 -0.0037499999999995167 0.0) 
(0.0 -0.003849999999999505 0.0) 
(0.0 -0.003949999999999495 0.0) 
(0.0 -0.004049999999999483 0.0) 
(0.0 -0.004149999999999471 0.0) 
(0.0 -0.00424999999999946 0.0) 
(0.0 -0.004349999999999451 0.0) 
(0.0 -0.00444999999999944 0.0) 
(0.0 -0.004549999999999424 0.0) 
(0.0 -0.004649999999999415 0.0) 
(0.0 -0.0047499999999994075 0.0) 
(0.0 -0.004849999999999396 0.0) 
(0.0 -0.00494999999999939 0.0) 
(0.0 -0.005049999999999386 0.0) 
(0.0 -0.005149999999999381 0.0) 
(0.0 -0.005249999999999379 0.0) 
(0.0 -0.005349999999999383 0.0) 
(0.0 -0.005449999999999387 0.0) 
(0.0 -0.005549999999999394 0.0) 
(0.0 -0.005649999999999402 0.0) 
(0.0 -0.005749999999999411 0.0) 
(0.0 -0.005849999999999423 0.0) 
(0.0 -0.00594999999999943 0.0) 
(0.0 -0.006049999999999437 0.0) 
(0.0 -0.006149999999999445 0.0) 
(0.0 -0.006249999999999453 0.0) 
(0.0 -0.00634999999999946 0.0) 
(0.0 -0.00644999999999947 0.0) 
(0.0 -0.006549999999999467 0.0) 
(0.0 -0.006649999999999472 0.0) 
(0.0 -0.006749999999999476 0.0) 
(0.0 -0.006849999999999478 0.0) 
(0.0 -0.006949999999999479 0.0) 
(0.0 -0.007049999999999484 0.0) 
(0.0 -0.007149999999999492 0.0) 
(0.0 -0.007249999999999502 0.0) 
(0.0 -0.007349999999999503 0.0) 
(0.0 -0.007449999999999512 0.0) 
(0.0 -0.00754999999999952 0.0) 
(0.0 -0.007649999999999524 0.0) 
(0.0 -0.007749999999999527 0.0) 
(0.0 -0.007849999999999538 0.0) 
(0.0 -0.007949999999999555 0.0) 
(0.0 -0.008049999999999564 0.0) 
(0.0 -0.008149999999999578 0.0) 
(0.0 -0.008249999999999594 0.0) 
(0.0 -0.00834999999999962 0.0) 
(0.0 -0.008449999999999637 0.0) 
(0.0 -0.008549999999999655 0.0) 
(0.0 -0.008649999999999674 0.0) 
(0.0 -0.008749999999999699 0.0) 
(0.0 -0.008849999999999717 0.0) 
(0.0 -0.00894999999999974 0.0) 
(0.0 -0.00904999999999976 0.0) 
(0.0 -0.009149999999999783 0.0) 
(0.0 -0.009249999999999812 0.0) 
(0.0 -0.009349999999999841 0.0) 
(0.0 -0.00944999999999987 0.0) 
(0.0 -0.009549999999999895 0.0) 
(0.0 -0.00964999999999991 0.0) 
(0.0 -0.009749999999999946 0.0) 
(0.0 -0.009849999999999979 0.0) 
(0.0 -0.009949999999999995 0.0) 
(0.0 -4.999999999999331e-05 0.0) 
(0.0 -0.00014999999999997987 0.0) 
(0.0 -0.00024999999999996607 0.0) 
(0.0 -0.0003499999999999526 0.0) 
(0.0 -0.00044999999999993927 0.0) 
(0.0 -0.0005499999999999253 0.0) 
(0.0 -0.0006499999999999119 0.0) 
(0.0 -0.0007499999999998983 0.0) 
(0.0 -0.0008499999999998854 0.0) 
(0.0 -0.0009499999999998716 0.0) 
(0.0 -0.0010499999999998583 0.0) 
(0.0 -0.0011499999999998452 0.0) 
(0.0 -0.0012499999999998322 0.0) 
(0.0 -0.0013499999999998199 0.0) 
(0.0 -0.0014499999999998078 0.0) 
(0.0 -0.0015499999999997946 0.0) 
(0.0 -0.0016499999999997818 0.0) 
(0.0 -0.0017499999999997682 0.0) 
(0.0 -0.0018499999999997544 0.0) 
(0.0 -0.0019499999999997414 0.0) 
(0.0 -0.0020499999999997283 0.0) 
(0.0 -0.002149999999999714 0.0) 
(0.0 -0.0022499999999997 0.0) 
(0.0 -0.002349999999999688 0.0) 
(0.0 -0.0024499999999996734 0.0) 
(0.0 -0.00254999999999966 0.0) 
(0.0 -0.002649999999999648 0.0) 
(0.0 -0.0027499999999996364 0.0) 
(0.0 -0.002849999999999622 0.0) 
(0.0 -0.0029499999999996114 0.0) 
(0.0 -0.0030499999999996003 0.0) 
(0.0 -0.003149999999999587 0.0) 
(0.0 -0.003249999999999577 0.0) 
(0.0 -0.0033499999999995647 0.0) 
(0.0 -0.0034499999999995533 0.0) 
(0.0 -0.0035499999999995422 0.0) 
(0.0 -0.0036499999999995278 0.0) 
(0.0 -0.003749999999999518 0.0) 
(0.0 -0.003849999999999508 0.0) 
(0.0 -0.003949999999999497 0.0) 
(0.0 -0.004049999999999484 0.0) 
(0.0 -0.004149999999999472 0.0) 
(0.0 -0.00424999999999946 0.0) 
(0.0 -0.00434999999999945 0.0) 
(0.0 -0.0044499999999994405 0.0) 
(0.0 -0.004549999999999425 0.0) 
(0.0 -0.004649999999999412 0.0) 
(0.0 -0.004749999999999402 0.0) 
(0.0 -0.004849999999999389 0.0) 
(0.0 -0.004949999999999391 0.0) 
(0.0 -0.005049999999999384 0.0) 
(0.0 -0.0051499999999993825 0.0) 
(0.0 -0.00524999999999938 0.0) 
(0.0 -0.00534999999999938 0.0) 
(0.0 -0.00544999999999939 0.0) 
(0.0 -0.005549999999999394 0.0) 
(0.0 -0.005649999999999395 0.0) 
(0.0 -0.005749999999999407 0.0) 
(0.0 -0.00584999999999942 0.0) 
(0.0 -0.005949999999999433 0.0) 
(0.0 -0.0060499999999994395 0.0) 
(0.0 -0.006149999999999444 0.0) 
(0.0 -0.006249999999999447 0.0) 
(0.0 -0.0063499999999994585 0.0) 
(0.0 -0.006449999999999467 0.0) 
(0.0 -0.006549999999999465 0.0) 
(0.0 -0.006649999999999475 0.0) 
(0.0 -0.0067499999999994795 0.0) 
(0.0 -0.0068499999999994815 0.0) 
(0.0 -0.006949999999999483 0.0) 
(0.0 -0.007049999999999487 0.0) 
(0.0 -0.007149999999999496 0.0) 
(0.0 -0.007249999999999504 0.0) 
(0.0 -0.007349999999999504 0.0) 
(0.0 -0.007449999999999514 0.0) 
(0.0 -0.0075499999999995215 0.0) 
(0.0 -0.007649999999999522 0.0) 
(0.0 -0.007749999999999529 0.0) 
(0.0 -0.007849999999999536 0.0) 
(0.0 -0.007949999999999553 0.0) 
(0.0 -0.008049999999999571 0.0) 
(0.0 -0.008149999999999581 0.0) 
(0.0 -0.008249999999999596 0.0) 
(0.0 -0.008349999999999618 0.0) 
(0.0 -0.008449999999999637 0.0) 
(0.0 -0.008549999999999657 0.0) 
(0.0 -0.008649999999999672 0.0) 
(0.0 -0.008749999999999696 0.0) 
(0.0 -0.00884999999999972 0.0) 
(0.0 -0.008949999999999732 0.0) 
(0.0 -0.009049999999999761 0.0) 
(0.0 -0.009149999999999787 0.0) 
(0.0 -0.009249999999999819 0.0) 
(0.0 -0.009349999999999841 0.0) 
(0.0 -0.009449999999999866 0.0) 
(0.0 -0.009549999999999892 0.0) 
(0.0 -0.009649999999999916 0.0) 
(0.0 -0.009749999999999948 0.0) 
(0.0 -0.009849999999999975 0.0) 
(0.0 -0.00995 0.0) 
(0.0 -4.99999999999932e-05 0.0) 
(0.0 -0.0001499999999999796 0.0) 
(0.0 -0.0002499999999999661 0.0) 
(0.0 -0.00034999999999995256 0.0) 
(0.0 -0.000449999999999939 0.0) 
(0.0 -0.0005499999999999254 0.0) 
(0.0 -0.0006499999999999117 0.0) 
(0.0 -0.0007499999999998981 0.0) 
(0.0 -0.0008499999999998848 0.0) 
(0.0 -0.0009499999999998718 0.0) 
(0.0 -0.0010499999999998583 0.0) 
(0.0 -0.0011499999999998454 0.0) 
(0.0 -0.001249999999999832 0.0) 
(0.0 -0.0013499999999998197 0.0) 
(0.0 -0.0014499999999998071 0.0) 
(0.0 -0.0015499999999997946 0.0) 
(0.0 -0.001649999999999782 0.0) 
(0.0 -0.0017499999999997687 0.0) 
(0.0 -0.0018499999999997544 0.0) 
(0.0 -0.001949999999999741 0.0) 
(0.0 -0.002049999999999728 0.0) 
(0.0 -0.0021499999999997155 0.0) 
(0.0 -0.0022499999999997023 0.0) 
(0.0 -0.0023499999999996883 0.0) 
(0.0 -0.0024499999999996742 0.0) 
(0.0 -0.0025499999999996628 0.0) 
(0.0 -0.0026499999999996487 0.0) 
(0.0 -0.0027499999999996364 0.0) 
(0.0 -0.002849999999999624 0.0) 
(0.0 -0.0029499999999996135 0.0) 
(0.0 -0.003049999999999599 0.0) 
(0.0 -0.0031499999999995885 0.0) 
(0.0 -0.003249999999999577 0.0) 
(0.0 -0.0033499999999995664 0.0) 
(0.0 -0.003449999999999552 0.0) 
(0.0 -0.003549999999999541 0.0) 
(0.0 -0.003649999999999528 0.0) 
(0.0 -0.003749999999999522 0.0) 
(0.0 -0.0038499999999995135 0.0) 
(0.0 -0.0039499999999995025 0.0) 
(0.0 -0.004049999999999485 0.0) 
(0.0 -0.004149999999999469 0.0) 
(0.0 -0.0042499999999994625 0.0) 
(0.0 -0.00434999999999945 0.0) 
(0.0 -0.004449999999999439 0.0) 
(0.0 -0.004549999999999425 0.0) 
(0.0 -0.004649999999999412 0.0) 
(0.0 -0.004749999999999399 0.0) 
(0.0 -0.004849999999999394 0.0) 
(0.0 -0.004949999999999389 0.0) 
(0.0 -0.005049999999999387 0.0) 
(0.0 -0.005149999999999382 0.0) 
(0.0 -0.005249999999999384 0.0) 
(0.0 -0.005349999999999387 0.0) 
(0.0 -0.005449999999999395 0.0) 
(0.0 -0.00554999999999939 0.0) 
(0.0 -0.005649999999999399 0.0) 
(0.0 -0.005749999999999412 0.0) 
(0.0 -0.005849999999999422 0.0) 
(0.0 -0.005949999999999434 0.0) 
(0.0 -0.006049999999999439 0.0) 
(0.0 -0.006149999999999442 0.0) 
(0.0 -0.0062499999999994504 0.0) 
(0.0 -0.006349999999999457 0.0) 
(0.0 -0.006449999999999461 0.0) 
(0.0 -0.006549999999999464 0.0) 
(0.0 -0.0066499999999994714 0.0) 
(0.0 -0.006749999999999476 0.0) 
(0.0 -0.006849999999999485 0.0) 
(0.0 -0.006949999999999492 0.0) 
(0.0 -0.007049999999999492 0.0) 
(0.0 -0.0071499999999995 0.0) 
(0.0 -0.007249999999999503 0.0) 
(0.0 -0.0073499999999995045 0.0) 
(0.0 -0.007449999999999511 0.0) 
(0.0 -0.007549999999999519 0.0) 
(0.0 -0.007649999999999523 0.0) 
(0.0 -0.007749999999999525 0.0) 
(0.0 -0.00784999999999954 0.0) 
(0.0 -0.007949999999999553 0.0) 
(0.0 -0.008049999999999566 0.0) 
(0.0 -0.008149999999999586 0.0) 
(0.0 -0.008249999999999603 0.0) 
(0.0 -0.008349999999999622 0.0) 
(0.0 -0.008449999999999642 0.0) 
(0.0 -0.008549999999999653 0.0) 
(0.0 -0.00864999999999967 0.0) 
(0.0 -0.008749999999999694 0.0) 
(0.0 -0.008849999999999707 0.0) 
(0.0 -0.008949999999999743 0.0) 
(0.0 -0.009049999999999765 0.0) 
(0.0 -0.009149999999999789 0.0) 
(0.0 -0.009249999999999816 0.0) 
(0.0 -0.009349999999999843 0.0) 
(0.0 -0.009449999999999873 0.0) 
(0.0 -0.009549999999999897 0.0) 
(0.0 -0.009649999999999916 0.0) 
(0.0 -0.009749999999999955 0.0) 
(0.0 -0.009849999999999987 0.0) 
(0.0 -0.009950000000000007 0.0) 
(0.0 -4.999999999999292e-05 0.0) 
(0.0 -0.00014999999999997944 0.0) 
(0.0 -0.00024999999999996596 0.0) 
(0.0 -0.00034999999999995213 0.0) 
(0.0 -0.00044999999999993884 0.0) 
(0.0 -0.0005499999999999255 0.0) 
(0.0 -0.0006499999999999116 0.0) 
(0.0 -0.0007499999999998989 0.0) 
(0.0 -0.0008499999999998851 0.0) 
(0.0 -0.000949999999999872 0.0) 
(0.0 -0.001049999999999859 0.0) 
(0.0 -0.0011499999999998456 0.0) 
(0.0 -0.0012499999999998328 0.0) 
(0.0 -0.0013499999999998203 0.0) 
(0.0 -0.0014499999999998067 0.0) 
(0.0 -0.0015499999999997944 0.0) 
(0.0 -0.0016499999999997818 0.0) 
(0.0 -0.0017499999999997682 0.0) 
(0.0 -0.0018499999999997544 0.0) 
(0.0 -0.0019499999999997414 0.0) 
(0.0 -0.002049999999999728 0.0) 
(0.0 -0.0021499999999997164 0.0) 
(0.0 -0.002249999999999703 0.0) 
(0.0 -0.0023499999999996874 0.0) 
(0.0 -0.0024499999999996742 0.0) 
(0.0 -0.0025499999999996606 0.0) 
(0.0 -0.002649999999999649 0.0) 
(0.0 -0.0027499999999996364 0.0) 
(0.0 -0.002849999999999625 0.0) 
(0.0 -0.002949999999999612 0.0) 
(0.0 -0.003049999999999599 0.0) 
(0.0 -0.003149999999999589 0.0) 
(0.0 -0.0032499999999995766 0.0) 
(0.0 -0.003349999999999565 0.0) 
(0.0 -0.0034499999999995506 0.0) 
(0.0 -0.003549999999999541 0.0) 
(0.0 -0.003649999999999529 0.0) 
(0.0 -0.0037499999999995237 0.0) 
(0.0 -0.0038499999999995127 0.0) 
(0.0 -0.003949999999999501 0.0) 
(0.0 -0.0040499999999994854 0.0) 
(0.0 -0.004149999999999471 0.0) 
(0.0 -0.004249999999999461 0.0) 
(0.0 -0.004349999999999449 0.0) 
(0.0 -0.004449999999999439 0.0) 
(0.0 -0.004549999999999425 0.0) 
(0.0 -0.004649999999999414 0.0) 
(0.0 -0.0047499999999994 0.0) 
(0.0 -0.004849999999999393 0.0) 
(0.0 -0.004949999999999388 0.0) 
(0.0 -0.0050499999999993874 0.0) 
(0.0 -0.005149999999999385 0.0) 
(0.0 -0.005249999999999385 0.0) 
(0.0 -0.005349999999999389 0.0) 
(0.0 -0.005449999999999394 0.0) 
(0.0 -0.005549999999999393 0.0) 
(0.0 -0.0056499999999993986 0.0) 
(0.0 -0.00574999999999941 0.0) 
(0.0 -0.005849999999999426 0.0) 
(0.0 -0.005949999999999431 0.0) 
(0.0 -0.006049999999999439 0.0) 
(0.0 -0.006149999999999444 0.0) 
(0.0 -0.00624999999999945 0.0) 
(0.0 -0.006349999999999454 0.0) 
(0.0 -0.006449999999999463 0.0) 
(0.0 -0.006549999999999469 0.0) 
(0.0 -0.006649999999999477 0.0) 
(0.0 -0.00674999999999948 0.0) 
(0.0 -0.0068499999999994884 0.0) 
(0.0 -0.006949999999999494 0.0) 
(0.0 -0.007049999999999497 0.0) 
(0.0 -0.0071499999999995005 0.0) 
(0.0 -0.007249999999999506 0.0) 
(0.0 -0.007349999999999508 0.0) 
(0.0 -0.007449999999999514 0.0) 
(0.0 -0.007549999999999515 0.0) 
(0.0 -0.00764999999999952 0.0) 
(0.0 -0.007749999999999531 0.0) 
(0.0 -0.007849999999999543 0.0) 
(0.0 -0.007949999999999556 0.0) 
(0.0 -0.008049999999999566 0.0) 
(0.0 -0.008149999999999583 0.0) 
(0.0 -0.0082499999999996 0.0) 
(0.0 -0.008349999999999615 0.0) 
(0.0 -0.008449999999999631 0.0) 
(0.0 -0.008549999999999652 0.0) 
(0.0 -0.008649999999999672 0.0) 
(0.0 -0.008749999999999683 0.0) 
(0.0 -0.00884999999999971 0.0) 
(0.0 -0.00894999999999974 0.0) 
(0.0 -0.009049999999999767 0.0) 
(0.0 -0.009149999999999789 0.0) 
(0.0 -0.009249999999999812 0.0) 
(0.0 -0.00934999999999984 0.0) 
(0.0 -0.00944999999999987 0.0) 
(0.0 -0.009549999999999897 0.0) 
(0.0 -0.009649999999999917 0.0) 
(0.0 -0.00974999999999996 0.0) 
(0.0 -0.009849999999999994 0.0) 
(0.0 -0.009950000000000035 0.0) 
)
;

boundaryField
{
	bottom
	{
		type	zeroGradient;
	}
	top
	{
		type	zeroGradient;
	}
	left
	{
		type	fixedValue;
		value	uniform (0.0 0.0 0.0);
	}
	right
	{
		type	fixedValue;
		value	uniform (0.0 -0.01 0.0);
	}
	frontAndBackPlanes
	{
		type	empty;
	}
}
