/*
 _____     _____     _____ _____ _____ _____    |  High-order Python FOAM
|  |  |___|  _  |_ _|   __|     |  _  |     |   |  Python Version: 3.10
|     | . |   __| | |   __|  |  |     | | | |   |  Code Version: 0.0
|__|__|___|__|  |_  |__|  |_____|__|__|_|_|_|   |  License: GPLv3
                |___|
*/
FoamFile
{
    version     2.0;
    format      ascii;
    class       volScalarField;
    location    "65.0";
    object     p;
}

dimensions      [0 0 0 1 0 0 0]; 

internalField   nonuniform List<scalar>
100
(
404100.3750249281 
-128631.99476123307 
-197281.97876019895 
-150473.64868426335 
-126939.39607604966 
-127189.37781665992 
-150530.70716141255 
-194798.4385853715 
-103643.19924582267 
382663.1857368301 
1282766.4567146467 
393977.95326977706 
153634.8691324565 
167204.57362360306 
191810.759050318 
192186.63522493528 
169155.43970158274 
160596.19679810494 
397830.857534346 
1271936.7353178342 
1399472.9541998869 
533796.6932283484 
221875.62538437065 
204362.8596643974 
220939.85299772053 
221211.38210480983 
205640.41554471894 
223996.34559531233 
534603.5619328606 
1393626.3456518739 
1558740.301447356 
601429.7749822743 
275101.65160767623 
237518.63437297178 
245991.7176867602 
246059.36869161698 
237789.65484208197 
275337.73306611687 
600419.3401876849 
1557105.1221002792 
1636795.0867953775 
653728.6880261208 
310803.129684581 
266192.8571225735 
270293.0169817592 
270240.90061622264 
266067.6673809241 
310455.18407708843 
652864.2595147972 
1635332.890204318 
1638668.8913899346 
653696.0806733068 
310420.754375298 
265857.0991631048 
270044.6960505465 
269981.605625885 
265728.37364511745 
310022.34469544975 
652635.6041760051 
1636828.1541301324 
1564478.107328611 
601413.9973967236 
273792.23879587377 
236579.02310219212 
245287.76968890303 
245305.39635450582 
236652.18415482272 
273656.246864016 
599829.963546279 
1561595.2259578314 
1410897.8205443616 
533108.5837762795 
219264.22868636437 
202789.24477136857 
219858.52745530647 
220010.22790438606 
203382.38640615676 
220255.73037976195 
531715.3213963883 
1402384.3971647988 
1299296.7246254438 
391551.6936850095 
151118.09847608552 
165504.65932021188 
190727.26616782456 
190944.78683692138 
166558.84138092268 
152774.78365317415 
392562.922738775 
1282483.9165173895 
402650.8495478978 
-125326.79229988085 
-197495.6949261816 
-149984.43814025316 
-126205.11160401917 
-126329.23911151219 
-150304.28396198282 
-197528.6135111963 
-128769.54816308137 
403087.8624278512 
)
;

boundaryField
{
	bottom
	{
		type	pressureTraction;
	}
	top
	{
		type	pressureTraction;
	}
	left
	{
		type	fixedValueFromZeroGrad;
	}
	right
	{
		type	fixedValueFromZeroGrad;
	}
	frontAndBackPlanes
	{
		type	empty;
	}
}
