/*
 _____     _____     _____ _____ _____ _____    |  High-order Python FOAM
|  |  |___|  _  |_ _|   __|     |  _  |     |   |  Python Version: 3.10
|     | . |   __| | |   __|  |  |     | | | |   |  Code Version: 0.0
|__|__|___|__|  |_  |__|  |_____|__|__|_|_|_|   |  License: GPLv3
                |___|
*/
FoamFile
{
    version     2.0;
    format      ascii;
    class       volScalarField;
    location    "65.0";
    object     pCorr;
}

dimensions      [0 0 0 1 0 0 0]; 

internalField   nonuniform List<scalar>
100
(
-850.110422875451 
-1762.1070555392953 
-475.2648824893455 
-162.49950865613704 
-550.2737591253248 
-553.5491840296639 
-187.10216293654707 
-498.34761776274684 
-1485.4255582535939 
-1010.6692507072416 
4636.991034768592 
-870.9756951315508 
134.66205112373694 
1010.5412512973573 
945.2957943620861 
939.5240292953606 
998.2548049059615 
169.96613645789353 
-822.0565833742987 
4564.579435458331 
4462.975824297132 
-1286.3326823574716 
-722.9859871333406 
388.6025333167962 
504.38367113842116 
501.00598423489794 
384.457125374481 
-718.8772271395286 
-1280.6677898329813 
4383.645790665141 
4857.104401495463 
-1702.7595577082957 
-1168.3927127703944 
30.780313875704127 
260.144445023231 
258.56861559460714 
27.589343714858842 
-1173.03236298033 
-1718.8331958868275 
4810.036751316485 
5126.1372223283 
-1685.1419170148465 
-1213.6985898580413 
40.29240211875004 
314.1045366301133 
313.30458495805624 
38.37786950895159 
-1218.3103219513903 
-1699.262529191191 
5084.740791553998 
5137.974633302015 
-1688.841367654145 
-1217.457481056635 
38.65626220126686 
313.5201092772952 
312.9940745302201 
38.333446882024504 
-1219.3366934447458 
-1700.4065080462615 
5101.495385763231 
4894.678245894952 
-1719.0596863714102 
-1182.8242318249331 
26.42984547649082 
258.2998910752126 
258.20114502207156 
28.244153002356143 
-1178.1007987840542 
-1722.2999482341831 
4856.504411079003 
4540.990095649134 
-1315.85158294809 
-752.6727361800795 
378.0288373244366 
498.46533833515616 
498.2626670299919 
384.2953678183005 
-730.6184418657155 
-1303.8155754750517 
4466.485664829548 
4783.7410933337005 
-919.0309721708189 
103.84859468125802 
995.1497064393158 
933.2768627065651 
932.760194661829 
1002.1950466525437 
133.18925926995246 
-880.4626878621046 
4627.502304846967 
-892.7217284832176 
-1740.416392361331 
-477.0210515805902 
-153.6255676444526 
-544.8837294297938 
-545.9975523013899 
-155.20070524670282 
-473.8416298790543 
-1760.012916144291 
-862.1917123433549 
)
;

boundaryField
{
	bottom
	{
		type	fixedValue;
		value	uniform 0.0;
	}
	top
	{
		type	fixedValue;
		value	uniform 0.0;
	}
	left
	{
		type	zeroGradient;
	}
	right
	{
		type	zeroGradient;
	}
	frontAndBackPlanes
	{
		type	empty;
	}
}
