/*
 _____     _____     _____ _____ _____ _____    |  High-order Python FOAM
|  |  |___|  _  |_ _|   __|     |  _  |     |   |  Python Version: 3.10
|     | . |   __| | |   __|  |  |     | | | |   |  Code Version: 0.0
|__|__|___|__|  |_  |__|  |_____|__|__|_|_|_|   |  License: GPLv3
                |___|
*/
FoamFile
{
    version     2.0;
    format      ascii;
    class       volScalarField;
    location    "32.0";
    object     pCorr;
}

dimensions      [0 0 0 1 0 0 0]; 

internalField   nonuniform List<scalar>
100
(
869.5491235180148 
-6427.082725320283 
-3907.2130284383147 
-1823.9218777503593 
-1149.612435586321 
-1156.959314172126 
-1831.847086840414 
-3866.459721894155 
-5954.177549889191 
505.1564927083732 
9782.567051129572 
-3205.814467364011 
-2834.2837298985 
258.38948530395817 
1666.5566752482312 
1670.2137443365468 
290.5418817549161 
-2695.88324076143 
-3104.778040185007 
9619.663072522473 
8302.151601952399 
-4656.467067392903 
-5466.414651415034 
-2450.069676653053 
-751.7782810158207 
-745.7445131223711 
-2420.327154400404 
-5410.501975470235 
-4611.684935100113 
8223.727449507152 
8243.116255524308 
-5821.16506720032 
-7076.36194695458 
-4388.901752178225 
-2693.35260230962 
-2688.6237618229857 
-4372.548533474665 
-7052.674685271614 
-5812.319211832349 
8234.824535330952 
8426.425855446883 
-6046.0419662492195 
-7636.51994365155 
-5111.191679991607 
-3469.005869567065 
-3464.578860099399 
-5098.0670565372575 
-7619.881478067575 
-6035.356522624469 
8424.286897875072 
8449.253841654332 
-6052.508222540826 
-7645.4258372195345 
-5115.848820122654 
-3469.269179828935 
-3462.999052073645 
-5097.334649296684 
-7622.836882845762 
-6038.934842226475 
8446.69365907571 
8314.575846691874 
-5840.550944565548 
-7106.2025887585905 
-4401.668658350556 
-2693.0509417618546 
-2682.925755962995 
-4373.057696212236 
-7070.109978456166 
-5824.436363954193 
8299.559338578756 
8454.413124203651 
-4694.338136849587 
-5521.994766125625 
-2471.6464711002886 
-749.3684829530312 
-736.4215285942258 
-2429.6164006398244 
-5461.090447618691 
-4669.605075406458 
8350.60933268573 
10027.841349990098 
-3275.7785245992477 
-2887.7036611971325 
236.60203759922013 
1667.8616748778477 
1681.209933708466 
278.9135575110709 
-2821.371863361044 
-3222.3678672200867 
9775.020871352828 
824.1261924231084 
-6390.500682711748 
-3916.0479135568016 
-1811.0306861147901 
-1122.9042973484818 
-1119.5775071108296 
-1803.8552688453756 
-3905.440058521531 
-6430.155132807702 
845.6827335282265 
)
;

boundaryField
{
	bottom
	{
		type	fixedValue;
		value	uniform 0.0;
	}
	top
	{
		type	fixedValue;
		value	uniform 0.0;
	}
	left
	{
		type	zeroGradient;
	}
	right
	{
		type	zeroGradient;
	}
	frontAndBackPlanes
	{
		type	empty;
	}
}
