/*
 _____     _____     _____ _____ _____ _____    |  High-order Python FOAM
|  |  |___|  _  |_ _|   __|     |  _  |     |   |  Python Version: 3.10
|     | . |   __| | |   __|  |  |     | | | |   |  Code Version: 0.0
|__|__|___|__|  |_  |__|  |_____|__|__|_|_|_|   |  License: GPLv3
                |___|
*/
FoamFile
{
    version     2.0;
    format      ascii;
    class       volScalarField;
    location    "61.0";
    object     p;
}

dimensions      [0 0 0 1 0 0 0]; 

internalField   nonuniform List<scalar>
100
(
407496.504887896 
-121155.2244002115 
-195231.64463511287 
-149780.9813545056 
-124673.12325804227 
-124908.37279864286 
-149737.26380707888 
-192658.11556940974 
-97308.30980648081 
386727.71210204146 
1263540.8064275975 
397576.355670804 
153082.43733760974 
162956.8083559501 
187792.16261019214 
188192.33357029787 
164957.61727958143 
159894.48766154595 
401226.12233485933 
1253011.5057374234 
1380885.020605945 
539046.0304649111 
224853.85528021873 
202696.618651104 
218735.68555355977 
219021.5242376231 
203991.56891462306 
226957.34524408815 
539829.1524474137 
1375361.4182073046 
1538498.0501145204 
608353.1513842862 
279922.51298021764 
237351.41800182333 
244808.32538961587 
244882.89016269956 
237636.59201013006 
280179.0936410002 
607410.0846255376 
1537053.1394973085 
1615424.5730057138 
660565.8030953754 
315815.3917375134 
265999.17692416103 
268896.7069553236 
268848.2182597799 
265882.88790176687 
315488.18786945695 
659761.1199139709 
1614130.45284934 
1617249.4450850107 
660548.395481753 
315448.72866170394 
265670.4999784548 
268650.9981137218 
268590.2026107121 
265543.6400933322 
315059.35743336345 
659536.9542695136 
1615557.1314942918 
1544080.667264014 
608403.6475590938 
278673.1368667674 
236430.76878246246 
244112.44969764526 
244130.30365517436 
236496.26011795268 
278518.3742674638 
606834.6774991174 
1541353.1670443048 
1391987.3953590945 
538478.2971978448 
222365.40370031228 
201167.8123524166 
217678.90751360916 
217830.93789101456 
201734.1537011641 
223266.4203449895 
537037.4161978472 
1383779.9995778778 
1279468.4158018385 
395347.0016462867 
150692.85387485015 
161320.9972633957 
186757.7229304439 
186976.72057834457 
162344.85334397192 
152228.5398053696 
396201.2584336033 
1263297.1766774019 
406220.1356762845 
-117939.10795979275 
-195437.51413285304 
-149327.24491879623 
-123961.32770151616 
-124081.41879345417 
-149641.5075102386 
-195483.63735496489 
-121300.52947583204 
406534.0331356248 
)
;

boundaryField
{
	bottom
	{
		type	pressureTraction;
	}
	top
	{
		type	pressureTraction;
	}
	left
	{
		type	fixedValueFromZeroGrad;
	}
	right
	{
		type	fixedValueFromZeroGrad;
	}
	frontAndBackPlanes
	{
		type	empty;
	}
}
