/*
 _____     _____     _____ _____ _____ _____    |  High-order Python FOAM
|  |  |___|  _  |_ _|   __|     |  _  |     |   |  Python Version: 3.10
|     | . |   __| | |   __|  |  |     | | | |   |  Code Version: 0.0
|__|__|___|__|  |_  |__|  |_____|__|__|_|_|_|   |  License: GPLv3
                |___|
*/
FoamFile
{
    version     2.0;
    format      ascii;
    class       volScalarField;
    location    "61.0";
    object     pCorr;
}

dimensions      [0 0 0 1 0 0 0]; 

internalField   nonuniform List<scalar>
100
(
-843.3155029066102 
-2058.3152782466523 
-582.6740499022333 
-195.28150560207058 
-595.9479516204414 
-600.3174695937249 
-221.38692911322335 
-603.9921795312941 
-1757.9689480085226 
-1021.6709643481854 
5095.205096955822 
-953.7608012486439 
135.72013226065607 
1143.604334697251 
1102.2665776216243 
1095.7118193088004 
1130.902391644985 
176.63145713068025 
-899.7745728527916 
5015.440170674619 
4956.945548893916 
-1364.3887321274387 
-792.5888159369988 
454.3190479191157 
623.0341667440273 
619.1399263948925 
449.6976985696178 
-787.8445134556493 
-1357.9193258996945 
4873.888631310314 
5401.257617328071 
-1787.773202182646 
-1281.1707178537154 
47.993160657673236 
346.20914219902244 
344.2286574160391 
43.88962816491339 
-1287.0749387410397 
-1805.858112964306 
5352.959105067933 
5704.584080806293 
-1760.2213873433834 
-1334.4162017072365 
48.234593434489625 
396.59956098092874 
395.5110689757432 
45.48454518965328 
-1340.5626418280597 
-1776.5033471629915 
5661.605988719558 
5717.49464364427 
-1764.186066760126 
-1338.625678521147 
46.2456537505669 
395.84444722574983 
395.1913893712047 
45.539021476303155 
-1341.5240319344193 
-1777.5971557641578 
5679.397583512677 
5442.1416407638335 
-1804.7651025669504 
-1297.1405616119182 
42.61672332090467 
343.9417358246792 
343.96500671898826 
44.72722511524702 
-1292.4883230279547 
-1809.4205236561347 
5402.211466742086 
5042.013365225906 
-1395.415620010651 
-825.0740105377271 
442.0985612225375 
616.6117761066147 
616.7513478019696 
449.5711447890657 
-801.4821904669783 
-1383.7583509056508 
4962.128775822313 
5252.469891249337 
-1004.9394319714188 
102.29111593476864 
1126.5691301021154 
1089.6991351178008 
1089.6037010084635 
1135.1056862051998 
134.09259695033356 
-964.6000854983963 
5085.054932971852 
-887.7201707683103 
-2035.0640355797111 
-584.9768944665302 
-186.3911062243943 
-589.8526168257712 
-590.6728621237725 
-187.46513214614342 
-581.4665081090169 
-2056.664686328497 
-856.5788804462469 
)
;

boundaryField
{
	bottom
	{
		type	fixedValue;
		value	uniform 0.0;
	}
	top
	{
		type	fixedValue;
		value	uniform 0.0;
	}
	left
	{
		type	zeroGradient;
	}
	right
	{
		type	zeroGradient;
	}
	frontAndBackPlanes
	{
		type	empty;
	}
}
