/*
 _____     _____     _____ _____ _____ _____    |  High-order Python FOAM
|  |  |___|  _  |_ _|   __|     |  _  |     |   |  Python Version: 3.10
|     | . |   __| | |   __|  |  |     | | | |   |  Code Version: 0.0
|__|__|___|__|  |_  |__|  |_____|__|__|_|_|_|   |  License: GPLv3
                |___|
*/
FoamFile
{
    version     2.0;
    format      ascii;
    class       volVectorField;
    location    "52.0";
    object     U;
}

dimensions      [0 1 0 0 0 0 0]; 

internalField   nonuniform List<vector>
100
(
(0.016280616733471077 0.0347890448710821 0.0) 
(0.020619860748929245 0.046863827151635916 0.0) 
(0.028552966372412777 0.047377323138058036 0.0) 
(0.03734180436091497 0.04958706127361271 0.0) 
(0.045914387041004125 0.05101679773540613 0.0) 
(0.054366423909759584 0.051007234177400704 0.0) 
(0.06296000870345694 0.04954785981444322 0.0) 
(0.07181858677994013 0.04732857584651716 0.0) 
(0.07959627858147801 0.04643403366207749 0.0) 
(0.08469579835273044 0.034285046037084564 0.0) 
(0.0151709833741398 0.022776638961180273 0.0) 
(0.015270320262163333 0.035949459465533476 0.0) 
(0.024690668572765955 0.04015022965710607 0.0) 
(0.03499541186769247 0.04189614792738474 0.0) 
(0.04513103212156147 0.042843401093656336 0.0) 
(0.055150667198582 0.042821177418524994 0.0) 
(0.06530340411036781 0.04181965233558247 0.0) 
(0.0756134958400332 0.03997179342746281 0.0) 
(0.08503089684421428 0.035610238571789646 0.0) 
(0.08491995944387305 0.022652056799236417 0.0) 
(0.01123536791661375 0.012694201907587717 0.0) 
(0.011405678271024724 0.02426345826880988 0.0) 
(0.02110552219703244 0.028751921487013925 0.0) 
(0.0328271201996772 0.03064889708998435 0.0) 
(0.04439985476370104 0.03136517236054746 0.0) 
(0.055825133831759306 0.03133606609221404 0.0) 
(0.0673900878037359 0.03055605705287594 0.0) 
(0.07907693406662752 0.028585276264582713 0.0) 
(0.08868618680789804 0.024090475096934155 0.0) 
(0.08884508363694191 0.012648414213677222 0.0) 
(0.011296926048343908 0.007056660802691616 0.0) 
(0.00899213191974785 0.013842752043944995 0.0) 
(0.018771545532783596 0.01722954010501851 0.0) 
(0.031208565054528035 0.0186873216396937 0.0) 
(0.043826200733384425 0.019207411200380824 0.0) 
(0.056329408848290234 0.01918269527892518 0.0) 
(0.06892728436221415 0.018614385520724787 0.0) 
(0.08131744764949819 0.01712511676740286 0.0) 
(0.09104564060813627 0.01375008761902573 0.0) 
(0.08865549593887631 0.0070370653278682025 0.0) 
(0.011439706779465405 0.0022554696509363755 0.0) 
(0.00818556651587427 0.004544382042610727 0.0) 
(0.017673265626580906 0.00572465382792114 0.0) 
(0.030392322558281434 0.006278990911518978 0.0) 
(0.04351582717313349 0.00646966748235101 0.0) 
(0.05658548050149367 0.006454515961139006 0.0) 
(0.06968830684612788 0.006237022475803732 0.0) 
(0.08237204276602357 0.00566761147186776 0.0) 
(0.0918275253750152 0.004497577605421117 0.0) 
(0.08857075116390699 0.002235928615838436 0.0) 
(0.011471323722736442 -0.0022079133542229636 0.0) 
(0.008187217679583159 -0.004532441574972349 0.0) 
(0.017675612010242765 -0.005735234495603871 0.0) 
(0.030390829305029923 -0.006297171001043295 0.0) 
(0.04350648003987376 -0.0064982308737661625 0.0) 
(0.05656780736277932 -0.00650366606493075 0.0) 
(0.06966558394710573 -0.006312286621650546 0.0) 
(0.08235093308418848 -0.005757415865068473 0.0) 
(0.09181831377519017 -0.004561718059006675 0.0) 
(0.08853725461046051 -0.002231291429624524 0.0) 
(0.011332346827040454 -0.007012788032573927 0.0) 
(0.009007234862728808 -0.013839228287299518 0.0) 
(0.018784711044352174 -0.01723496743595326 0.0) 
(0.031205356482063587 -0.0186897522764916 0.0) 
(0.043798569983931016 -0.019218479037892804 0.0) 
(0.05627555816157028 -0.019216261202644525 0.0) 
(0.068854412527473 -0.01868336244496411 0.0) 
(0.08124886894571312 -0.017225315290861718 0.0) 
(0.09099869482562557 -0.01384311934255292 0.0) 
(0.08864152711948506 -0.007044144671879926 0.0) 
(0.01136597974889728 -0.01268077897421964 0.0) 
(0.011477748290357416 -0.024279385471913086 0.0) 
(0.021134250071277918 -0.02872991899231669 0.0) 
(0.032823726029250794 -0.03061814051081171 0.0) 
(0.04435622694057173 -0.03134024200467911 0.0) 
(0.055735249173050325 -0.031333357360909905 0.0) 
(0.06726089829383365 -0.030598987411013367 0.0) 
(0.07893436090010257 -0.028699754546506584 0.0) 
(0.08859637555028049 -0.02423292853910192 0.0) 
(0.08866444971555133 -0.012695782153517701 0.0) 
(0.015633441653633555 -0.022864456266538668 0.0) 
(0.015345261114331769 -0.03592237672781191 0.0) 
(0.02472419108145324 -0.040084481296804274 0.0) 
(0.0349842747604894 -0.04181530873619779 0.0) 
(0.04506980923875235 -0.04276428597416067 0.0) 
(0.05503437914797352 -0.04276182185483246 0.0) 
(0.06512567051650424 -0.04180014103712176 0.0) 
(0.07539729755432494 -0.040050370588906745 0.0) 
(0.08477032078851586 -0.03587753398239695 0.0) 
(0.08484989721418466 -0.022773768429824065 0.0) 
(0.016276706542508436 -0.034918291297764796 0.0) 
(0.0206911585756973 -0.046790575084931695 0.0) 
(0.028553408535110472 -0.047279506374291035 0.0) 
(0.037316519361887734 -0.049459432280271845 0.0) 
(0.04584849459011924 -0.05089475076802325 0.0) 
(0.054247444825521456 -0.05089342023771189 0.0) 
(0.06278306124573137 -0.04945652601714077 0.0) 
(0.07154652226275006 -0.04725334514290899 0.0) 
(0.079454074276991 -0.046751459833325335 0.0) 
(0.08375742259245417 -0.03474481276981232 0.0) 
)
;

boundaryField
{
	bottom
	{
		type	solidTraction;
		value	nonuniform List<vector>
10
(
(0.01780758701459957 0.04079090833493323 0.0) 
(0.023507217967113133 0.04930162827575757 0.0) 
(0.030633121249399126 0.051687079959807265 0.0) 
(0.03846867326429677 0.05332249134896069 0.0) 
(0.04628309352621381 0.05479576843577828 0.0) 
(0.05400273588191717 0.0547907988798466 0.0) 
(0.06184839416084409 0.053309461641453074 0.0) 
(0.06971493376397014 0.05160215202557557 0.0) 
(0.07700578149661082 0.04888793148069193 0.0) 
(0.0833010048095396 0.04018030407089585 0.0) 
)
;
	}
	top
	{
		type	solidTraction;
		value	nonuniform List<vector>
10
(
(0.017728898738519995 -0.04091227371920047 0.0) 
(0.023494670811917088 -0.049258870521908485 0.0) 
(0.030628586542986207 -0.05157077392610268 0.0) 
(0.038432870077506245 -0.053179904281992735 0.0) 
(0.04621152434171399 -0.05465142520653394 0.0) 
(0.05388096791450984 -0.05465151996458779 0.0) 
(0.061660753915528034 -0.05317742025039114 0.0) 
(0.06947367135209855 -0.05154970333488901 0.0) 
(0.07657766833519691 -0.0491846461416148 0.0) 
(0.082247234286893 -0.04072611689205681 0.0) 
)
;
	}
	left
	{
		type	fixedValue;
		value	uniform (0.0 0.0 0.0);
	}
	right
	{
		type	fixedValue;
		value	uniform (0.1 0.0 0.0);
	}
	frontAndBackPlanes
	{
		type	empty;
	}
}
