/*
 _____     _____     _____ _____ _____ _____    |  High-order Python FOAM
|  |  |___|  _  |_ _|   __|     |  _  |     |   |  Python Version: 3.10
|     | . |   __| | |   __|  |  |     | | | |   |  Code Version: 0.0
|__|__|___|__|  |_  |__|  |_____|__|__|_|_|_|   |  License: GPLv3
                |___|
*/
FoamFile
{
    version     2.0;
    format      ascii;
    class       volScalarField;
    location    "1.0";
    object     T;
}

dimensions      [0 0 0 1 0 0 0]; 

internalField   nonuniform List<scalar>
25
(
0.09999999999999974 
0.29999999999999893 
0.500000000000005 
0.6999999999999988 
0.8999999999999984 
0.09999999999999958 
0.30000000000000066 
0.4999999999999955 
0.6999999999999991 
0.8999999999999975 
0.10000000000000013 
0.29999999999999877 
0.4999999999999969 
0.6999999999999975 
0.8999999999999987 
0.09999999999999985 
0.29999999999999993 
0.49999999999999467 
0.699999999999998 
0.8999999999999981 
0.10000000000000121 
0.30000000000000115 
0.500000000000007 
0.7000000000000002 
0.8999999999999991 
)
;

boundaryField
{
	bottom
	{
		type	zeroGradient;
	}
	top
	{
		type	zeroGradient;
	}
	left
	{
		type	fixedValue;
		value	uniform 0.0;
	}
	right
	{
		type	fixedValue;
		value	uniform 1.0;
	}
	frontAndBackPlanes
	{
		type	empty;
	}
}
