/*
 _____     _____     _____ _____ _____ _____    |  High-order Python FOAM
|  |  |___|  _  |_ _|   __|     |  _  |     |   |  Python Version: 3.10
|     | . |   __| | |   __|  |  |     | | | |   |  Code Version: 0.0
|__|__|___|__|  |_  |__|  |_____|__|__|_|_|_|   |  License: GPLv3
                |___|
*/
FoamFile
{
    version     2.0;
    format      ascii;
    class       volScalarField;
    location    "1.0";
    object     T;
}

dimensions      [0 0 0 1 0 0 0]; 

internalField   nonuniform List<scalar>
25
(
0.5000000000000003 
0.7643678160919545 
0.8218390804597705 
0.764367816091954 
0.4999999999999996 
0.23563218390804616 
0.5000000000000003 
0.5804597701149427 
0.4999999999999997 
0.23563218390804544 
0.17816091954023006 
0.41954022988505785 
0.5000000000000002 
0.41954022988505724 
0.17816091954022945 
0.23563218390804655 
0.5000000000000009 
0.5804597701149432 
0.5000000000000002 
0.23563218390804572 
0.5000000000000013 
0.764367816091955 
0.8218390804597709 
0.7643678160919546 
0.5000000000000001 
)
;

boundaryField
{
	bottom
	{
		type	fixedValue;
	}
	top
	{
		type	fixedValue;
	}
	left
	{
		type	fixedValue;
	}
	right
	{
		type	fixedValue;
	}
	frontAndBackPlanes
	{
		type	empty;
	}
}
