/*
 _____     _____     _____ _____ _____ _____    |  High-order Python FOAM
|  |  |___|  _  |_ _|   __|     |  _  |     |   |  Python Version: 3.10
|     | . |   __| | |   __|  |  |     | | | |   |  Code Version: 0.0
|__|__|___|__|  |_  |__|  |_____|__|__|_|_|_|   |  License: GPLv3
                |___|
*/
FoamFile
{
    version     2.0;
    format      ascii;
    class       volVectorField;
    location    "24.0";
    object     U;
}

dimensions      [0 1 0 0 0 0 0]; 

internalField   nonuniform List<vector>
100
(
(0.017972459515496617 0.029720505981249618 0.0) 
(0.022512971365271875 0.047603223355703876 0.0) 
(0.028313182731355375 0.04909520183183909 0.0) 
(0.03659850119975967 0.04955649022632983 0.0) 
(0.04553155882137888 0.04953833348093922 0.0) 
(0.05465662425858137 0.04953666854587396 0.0) 
(0.06359666081237962 0.049527364105725315 0.0) 
(0.071919101983475 0.04900259141713499 0.0) 
(0.07769360908774961 0.0472361235849458 0.0) 
(0.08277041402582618 0.029499806202460867 0.0) 
(0.013174412394158338 0.019971587164381816 0.0) 
(0.015780157944088265 0.03531683105479301 0.0) 
(0.024664168766392085 0.04079297500249353 0.0) 
(0.03469005119819519 0.04206671287650842 0.0) 
(0.04496958229558714 0.0423242536349281 0.0) 
(0.0552200058933863 0.04230582787643851 0.0) 
(0.06551405818580888 0.04199878959071401 0.0) 
(0.07555107207380955 0.04064116689820212 0.0) 
(0.08442354494365618 0.035087900198121184 0.0) 
(0.086850887492815 0.01989138899451705 0.0) 
(0.010527619887631165 0.011774904828324786 0.0) 
(0.012230697457135923 0.023900489488575705 0.0) 
(0.02113282428240552 0.029268527792507913 0.0) 
(0.03248071752598583 0.031293255732117914 0.0) 
(0.04421296696285625 0.03182246537371968 0.0) 
(0.05593634321448339 0.03179785745622663 0.0) 
(0.06765958231384779 0.031217240145847463 0.0) 
(0.07897844019433424 0.029144911338753354 0.0) 
(0.08782364783372384 0.023784413131277053 0.0) 
(0.08952851304850792 0.0117478913648356 0.0) 
(0.010700420612325795 0.006614806891932685 0.0) 
(0.010407493238556687 0.01376526630581469 0.0) 
(0.019083873495809568 0.0175766852297056 0.0) 
(0.030918201451629997 0.01924833205634608 0.0) 
(0.0436362881298009 0.01978440289297003 0.0) 
(0.056458667305426063 0.019763871443853553 0.0) 
(0.06916091923548395 0.01919021380838638 0.0) 
(0.08096273582211168 0.017498321340284936 0.0) 
(0.08960867313491132 0.013700101201481732 0.0) 
(0.0892443441620086 0.006598335543530843 0.0) 
(0.010923181853574994 0.002122147909930262 0.0) 
(0.00983213863000851 0.004522260389433703 0.0) 
(0.01818424978808135 0.005846734947654677 0.0) 
(0.030179047022258765 0.006483340490722327 0.0) 
(0.04334197778975337 0.006698448650103414 0.0) 
(0.0567110744262008 0.006684890939812378 0.0) 
(0.06986005892033885 0.006446641986675513 0.0) 
(0.08183299661177713 0.00579872326458314 0.0) 
(0.0901688376459412 0.0044841885183620565 0.0) 
(0.08908103635634125 0.002105954834792577 0.0) 
(0.010951526023582398 -0.0020933868396401903 0.0) 
(0.009836135540453435 -0.004519005525691905 0.0) 
(0.018187449649086564 -0.005862714035256011 0.0) 
(0.03017814060118761 -0.006509113722380077 0.0) 
(0.04333507444217799 -0.006737389710309255 0.0) 
(0.056698659196863344 -0.006744655241512153 0.0) 
(0.06984465959407307 -0.006528961080256458 0.0) 
(0.08181862869350212 -0.005890242603289917 0.0) 
(0.090162207442287 -0.004550428849894559 0.0) 
(0.0890526924150883 -0.00211380515946253 0.0) 
(0.010726440427871612 -0.006589601329412826 0.0) 
(0.010429232308747509 -0.013769331198015024 0.0) 
(0.019097953918405023 -0.01758800961468775 0.0) 
(0.030916356806685252 -0.019261779696324338 0.0) 
(0.04361630297537991 -0.019810428390963378 0.0) 
(0.05642116571432597 -0.019812862480856168 0.0) 
(0.06911238471728999 -0.01926868752482343 0.0) 
(0.08091700204975773 -0.017596978641760797 0.0) 
(0.08957257113657374 -0.013786436972399115 0.0) 
(0.08924195812543148 -0.006613943427881298 0.0) 
(0.01064395738486198 -0.011771712799296157 0.0) 
(0.012302397321987523 -0.02391867374947851 0.0) 
(0.02116097733106014 -0.029258922681950166 0.0) 
(0.032480431032844564 -0.031282784326944264 0.0) 
(0.04418305381459904 -0.031822103834875666 0.0) 
(0.055875165677436424 -0.03182154578990121 0.0) 
(0.06757393353478554 -0.031281929746534265 0.0) 
(0.07888661633941546 -0.029256593104393283 0.0) 
(0.08775959225875346 -0.023903935759516187 0.0) 
(0.0893734474916326 -0.011781738960308537 0.0) 
(0.013535329727262515 -0.020016981903193252 0.0) 
(0.015859626831554695 -0.035301848604377975 0.0) 
(0.024699797659212566 -0.04075648328151489 0.0) 
(0.03468980531804557 -0.04202213036555024 0.0) 
(0.04493318034078296 -0.04228311313034086 0.0) 
(0.055144808167196614 -0.04228752227322666 0.0) 
(0.0653980092298674 -0.042027359458313145 0.0) 
(0.07540552541368571 -0.04075486282363503 0.0) 
(0.08424553286538153 -0.035292703480311854 0.0) 
(0.0868369033935273 -0.01997737076301673 0.0) 
(0.0179904178531322 -0.02979362738043806 0.0) 
(0.022585553408727758 -0.047551343873487334 0.0) 
(0.02833181739735044 -0.049037852280682574 0.0) 
(0.03659259023087264 -0.04947849196479622 0.0) 
(0.04549775580140197 -0.04945990075201125 0.0) 
(0.054591532250744854 -0.04947046100672772 0.0) 
(0.06349808859882876 -0.04950495593743666 0.0) 
(0.07175704437445418 -0.04905121553918923 0.0) 
(0.07753041347221132 -0.0475547102001707 0.0) 
(0.08203906108980828 -0.02970584348732058 0.0) 
)
;

boundaryField
{
	bottom
	{
		type	solidTraction;
		value	nonuniform List<vector>
10
(
(0.020569953594592457 0.035540590146453 0.0) 
(0.02559402550357252 0.04900293235995233 0.0) 
(0.030715379226711775 0.05329319627281548 0.0) 
(0.03770009069022106 0.05325648538848447 0.0) 
(0.04586210147880578 0.05312780532254538 0.0) 
(0.054326765044318576 0.053128714559651485 0.0) 
(0.06249891384687957 0.05323735065779907 0.0) 
(0.06951332798574991 0.053169031392440204 0.0) 
(0.074826707111205 0.04868833669734204 0.0) 
(0.0802981688748602 0.035250671143553666 0.0) 
)
;
	}
	top
	{
		type	solidTraction;
		value	nonuniform List<vector>
10
(
(0.020532648828653292 -0.0356042978897976 0.0) 
(0.025604600440803302 -0.048968719800098086 0.0) 
(0.030732151844406173 -0.0532204689589381 0.0) 
(0.03769058164330656 -0.053166326803914574 0.0) 
(0.0458287250767919 -0.05303258491394915 0.0) 
(0.05426611010979521 -0.05304549757327367 0.0) 
(0.06240064887696492 -0.05319627954226641 0.0) 
(0.06935765619964242 -0.0532424950801489 0.0) 
(0.074454452338892 -0.04895468435189098 0.0) 
(0.0794505074549148 -0.035515130716195414 0.0) 
)
;
	}
	left
	{
		type	fixedValue;
		value	uniform (0.0 0.0 0.0);
	}
	right
	{
		type	fixedValue;
		value	uniform (0.1 0.0 0.0);
	}
	frontAndBackPlanes
	{
		type	empty;
	}
}
