/*
 _____     _____     _____ _____ _____ _____    |  High-order Python FOAM
|  |  |___|  _  |_ _|   __|     |  _  |     |   |  Python Version: 3.10
|     | . |   __| | |   __|  |  |     | | | |   |  Code Version: 0.0
|__|__|___|__|  |_  |__|  |_____|__|__|_|_|_|   |  License: GPLv3
                |___|
*/
FoamFile
{
    version     2.0;
    format      ascii;
    class       volScalarField;
    location    "48.0";
    object     p;
}

dimensions      [0 0 0 1 0 0 0]; 

internalField   nonuniform List<scalar>
100
(
417275.0093105852 
-87146.11891764506 
-184331.71213660468 
-146066.01826022577 
-115995.9637755348 
-116152.37959401538 
-145666.5978239405 
-181547.8962034759 
-67688.81226643531 
399230.36265035695 
1186766.9256444597 
412173.3385863827 
152489.0539741899 
146082.71620997574 
170475.82641206076 
170972.05058484545 
148236.8112121863 
158625.57384420134 
415016.0527283778 
1177451.9899321771 
1305764.9050293919 
559371.5064844948 
238637.11714449283 
197393.6481464758 
209782.5546201248 
210126.6046469354 
198748.39621378927 
240653.08178638102 
560048.3849941136 
1301388.2304070622 
1456995.069028357 
634773.0483251046 
301696.77334007446 
239399.21954458152 
241344.2537261694 
241453.20488640908 
239756.5797368601 
302054.99911370606 
634104.3029266567 
1456190.4199879875 
1529478.1743001195 
686689.6965003932 
338890.1117090631 
268846.053515471 
265547.7958785833 
265521.6447694548 
268788.47957026947 
338680.9461300404 
686143.9893747281 
1528767.5908276618 
1531109.1590796171 
686726.5861602698 
338584.65557789616 
268547.0628429054 
265311.26781209 
265264.23453877575 
268444.6890874419 
338263.87092813465 
685934.9651033347 
1529944.0460347678 
1461968.2560357356 
635048.1889455025 
300678.7661040817 
238560.19848331803 
240674.48407558101 
240691.37401950278 
238598.34461391097 
300475.8915320082 
633582.8194785014 
1459798.754051924 
1315600.095003566 
559225.6856177652 
236618.39692079645 
196043.79520179072 
208799.9955926262 
208943.5076149724 
196491.17821031896 
237192.3605264876 
557659.3819013563 
1308554.1239151913 
1200427.687857037 
410665.11976891453 
150579.34038028977 
144687.62389269183 
169594.15429098744 
169804.24986879242 
145568.9896115089 
151659.09439378028 
410976.0198896477 
1186675.3457824518 
416605.5082324749 
-84266.6797786129 
-184498.20900499416 
-145734.74955627287 
-115392.95242784584 
-115508.537625498 
-146043.68788106448 
-184591.93424310954 
-87295.6653849883 
416514.53687407315 
)
;

boundaryField
{
	bottom
	{
		type	pressureTraction;
	}
	top
	{
		type	pressureTraction;
	}
	left
	{
		type	fixedValueFromZeroGrad;
	}
	right
	{
		type	fixedValueFromZeroGrad;
	}
	frontAndBackPlanes
	{
		type	empty;
	}
}
