/*
 _____     _____     _____ _____ _____ _____    |  High-order Python FOAM
|  |  |___|  _  |_ _|   __|     |  _  |     |   |  Python Version: 3.10
|     | . |   __| | |   __|  |  |     | | | |   |  Code Version: 0.0
|__|__|___|__|  |_  |__|  |_____|__|__|_|_|_|   |  License: GPLv3
                |___|
*/
FoamFile
{
    version     2.0;
    format      ascii;
    class       volScalarField;
    location    "48.0";
    object     pCorr;
}

dimensions      [0 0 0 1 0 0 0]; 

internalField   nonuniform List<scalar>
100
(
-549.2325334198072 
-3341.052720427044 
-1187.9238585025732 
-356.34940353207946 
-650.8848223118225 
-659.0768679364928 
-384.54432760922947 
-1196.242414900707 
-2959.7925935875805 
-798.9801120868686 
7065.550881622261 
-1239.375882738164 
2.7466154200118944 
1629.097167779894 
1823.452663665681 
1815.2304904249756 
1619.23843065415 
68.95518836139661 
-1168.6678789245175 
6953.140549541965 
7019.305505603883 
-1634.4431009439431 
-1263.1437310683239 
514.1082961477767 
983.2536533243634 
977.95026533287 
509.2905386238209 
-1254.4794881055493 
-1625.2806607177824 
6924.338008880717 
7628.40624759797 
-2105.5174085858694 
-2014.0783489940777 
-267.7237801944199 
338.5583424114061 
334.68814085013935 
-276.1268645514309 
-2025.6284763649492 
-2131.6805950064786 
7577.475677504213 
8047.106528786372 
-2067.1190680914715 
-2172.441640487314 
-428.79324235159515 
219.58283139748517 
216.53262937225097 
-436.96923827696276 
-2187.042851076095 
-2093.194410610217 
7999.013925789339 
8064.530661831452 
-2071.5737102128596 
-2177.8110320843093 
-431.4728453795133 
218.95592937432517 
216.8385454204161 
-436.3313068668524 
-2188.044435167802 
-2094.6273329622913 
8019.851389144045 
7682.709263121393 
-2122.949168274877 
-2034.2464992290163 
-275.2536256322343 
336.92322341841214 
336.62413083612006 
-274.41329574326886 
-2033.553339154457 
-2136.976314392003 
7635.112330128659 
7132.317632437959 
-1668.4276912095481 
-1304.0260170441447 
498.1919683201987 
978.6097894576862 
979.6789529544667 
508.67681397107765 
-1278.4297891280312 
-1663.08521430956 
7030.343510391408 
7260.691708097399 
-1299.9691395468612 
-38.899880807586115 
1608.4895451613932 
1812.9686866680292 
1814.6951813661829 
1622.3589134092617 
-0.5767295462827654 
-1257.7624698331097 
7051.407047777808 
-597.7838493342318 
-3312.2027108563498 
-1192.487934916918 
-346.72071445182826 
-639.447480852728 
-639.2334718005553 
-346.4235904352705 
-1188.8407428898447 
-3343.0849843718333 
-567.4612381459095 
)
;

boundaryField
{
	bottom
	{
		type	fixedValue;
		value	uniform 0.0;
	}
	top
	{
		type	fixedValue;
		value	uniform 0.0;
	}
	left
	{
		type	zeroGradient;
	}
	right
	{
		type	zeroGradient;
	}
	frontAndBackPlanes
	{
		type	empty;
	}
}
