/*
 _____     _____     _____ _____ _____ _____    |  High-order Python FOAM
|  |  |___|  _  |_ _|   __|     |  _  |     |   |  Python Version: 3.10
|     | . |   __| | |   __|  |  |     | | | |   |  Code Version: 0.0
|__|__|___|__|  |_  |__|  |_____|__|__|_|_|_|   |  License: GPLv3
                |___|
*/
FoamFile
{
    version     2.0;
    format      ascii;
    class       volVectorField;
    location    "48.0";
    object     U;
}

dimensions      [0 1 0 0 0 0 0]; 

internalField   nonuniform List<vector>
100
(
(0.01646747864914476 0.03440429974736003 0.0) 
(0.0207451546933672 0.04698084105080132 0.0) 
(0.02852064987558506 0.047500231087261584 0.0) 
(0.03730052374626295 0.04958898254660911 0.0) 
(0.04589820909856653 0.05095631589700353 0.0) 
(0.05437428913335318 0.050947544598942525 0.0) 
(0.06299100566648397 0.0495506272043469 0.0) 
(0.07183565529037989 0.047444423513728406 0.0) 
(0.07947123571795228 0.04655135827127356 0.0) 
(0.08448884661227325 0.03392998106956037 0.0) 
(0.014980371835808986 0.022497397289004534 0.0) 
(0.015319020377823058 0.03591282741362153 0.0) 
(0.024676541230615832 0.04020128923308559 0.0) 
(0.03496652102837325 0.04190791783041742 0.0) 
(0.0451189922793208 0.04281408926185466 0.0) 
(0.05515510588884232 0.04279215232160184 0.0) 
(0.0653238912795972 0.04183164471975636 0.0) 
(0.07561929091924088 0.04002375312255472 0.0) 
(0.08497251795124837 0.03558338923948932 0.0) 
(0.08510298293465698 0.022377022936808107 0.0) 
(0.011148012119822314 0.01260316714978591 0.0) 
(0.011467760268681886 0.024229612678921677 0.0) 
(0.021086403427206638 0.028794293509335506 0.0) 
(0.03278691489629663 0.030696802117904865 0.0) 
(0.04438308709814866 0.03139752965225219 0.0) 
(0.05583626216445461 0.03136868642876281 0.0) 
(0.06742417819041388 0.030605007966496445 0.0) 
(0.0790897378678848 0.028631137786944243 0.0) 
(0.08862061107979023 0.024061922436381226 0.0) 
(0.08892961562260772 0.012559470640064872 0.0) 
(0.011218693247306217 0.007007002222581573 0.0) 
(0.009104602295700141 0.013830753649016656 0.0) 
(0.018766870639822696 0.017253049171277002 0.0) 
(0.03116424416815565 0.01872445878143672 0.0) 
(0.04380594435936806 0.019242488255375167 0.0) 
(0.05634567718779653 0.01921803002173177 0.0) 
(0.06896765150484002 0.018652590414870208 0.0) 
(0.08131901998685016 0.017150781930422042 0.0) 
(0.09093153226129062 0.013740601256847744 0.0) 
(0.08873256449638982 0.006987599492472189 0.0) 
(0.011365394356976343 0.0022399224274413003 0.0) 
(0.008316108148449486 0.004539357999314783 0.0) 
(0.017680512741800165 0.005731593730311062 0.0) 
(0.030348982001910246 0.006290974848634105 0.0) 
(0.04349473468129779 0.006482192613324325 0.0) 
(0.056603790386065105 0.00646712534582088 0.0) 
(0.06972922785081487 0.006249328344609296 0.0) 
(0.0823632115557127 0.0056751954499969885 0.0) 
(0.09169637067522866 0.004493194954447382 0.0) 
(0.0886439202438113 0.002220563496615617 0.0) 
(0.011396545917995313 -0.002194534658785009 0.0) 
(0.008317983325206266 -0.004528347330487071 0.0) 
(0.017682880219607986 -0.005742640238719279 0.0) 
(0.030347480107166088 -0.006309736895320646 0.0) 
(0.04348556383706851 -0.006511540774441147 0.0) 
(0.05658655041523745 -0.00651714029115928 0.0) 
(0.06970714913025197 -0.006325319000239112 0.0) 
(0.08234273039572809 -0.005765443216005238 0.0) 
(0.09168739326208404 -0.004558003786452393 0.0) 
(0.088611140938916 -0.0022177419473128975 0.0) 
(0.011253159897979972 -0.006965328620511438 0.0) 
(0.009120302188064632 -0.013828088022726226 0.0) 
(0.01877989443188404 -0.01725902639486497 0.0) 
(0.03116098435426236 -0.01872783842114576 0.0) 
(0.04377888489654503 -0.01925473912948491 0.0) 
(0.056293174604361146 -0.019252837984622937 0.0) 
(0.06889693829054032 -0.018722474125998353 0.0) 
(0.08125262536038515 -0.017251058650933637 0.0) 
(0.09088566865137293 -0.013833321711338938 0.0) 
(0.0887200184822983 -0.006995988877660048 0.0) 
(0.01127662775058068 -0.012591294723111162 0.0) 
(0.01153953385647734 -0.024245943201131853 0.0) 
(0.021114738327949804 -0.02877382088552923 0.0) 
(0.03278355367475968 -0.030668034560387955 0.0) 
(0.04434054313540995 -0.03137465438359312 0.0) 
(0.05574877862779694 -0.031368040291832246 0.0) 
(0.06729886695762644 -0.03064987210077216 0.0) 
(0.07895214422401217 -0.028745619662910643 0.0) 
(0.08853351592609988 -0.024202325458799495 0.0) 
(0.08875207615032037 -0.012605544782349567 0.0) 
(0.015431507448150106 -0.022580638412327114 0.0) 
(0.015394401822455814 -0.03588785116212612 0.0) 
(0.024709822512758616 -0.040139151236699755 0.0) 
(0.03495601093489451 -0.04183094768537099 0.0) 
(0.04505978498582682 -0.04273840678821533 0.0) 
(0.05504239966903499 -0.04273595921542031 0.0) 
(0.06515194713615018 -0.041816100232085665 0.0) 
(0.07541006311201029 -0.040106283170411546 0.0) 
(0.08472036695826744 -0.03584513292963428 0.0) 
(0.08503927703205699 -0.022495538199030753 0.0) 
(0.016466499085962562 -0.03452809786118145 0.0) 
(0.020815957714343084 -0.04691120145079752 0.0) 
(0.02852228854790555 -0.04740730163574679 0.0) 
(0.03727639927658549 -0.049466770588181365 0.0) 
(0.04583462957449818 -0.05083840317038635 0.0) 
(0.054259738255977415 -0.05083700932096134 0.0) 
(0.0628218373356439 -0.049463742063045865 0.0) 
(0.07157669816295895 -0.04738175890965882 0.0) 
(0.07932677310695146 -0.04687348312801876 0.0) 
(0.08356845853932547 -0.03436330533555378 0.0) 
)
;

boundaryField
{
	bottom
	{
		type	solidTraction;
		value	nonuniform List<vector>
10
(
(0.018088727059411055 0.04042321325741521 0.0) 
(0.02366922085595655 0.04933206992313351 0.0) 
(0.030628355182140767 0.0518202436668838 0.0) 
(0.03842738161083708 0.05333463703962313 0.0) 
(0.046264308035510175 0.05473100475303873 0.0) 
(0.054012326328837755 0.05472665116627704 0.0) 
(0.061877597327203826 0.053320444986669185 0.0) 
(0.06970664471714239 0.051727877554872764 0.0) 
(0.07683623719459604 0.04892359491540602 0.0) 
(0.08300016972498556 0.03984487820514128 0.0) 
)
;
	}
	top
	{
		type	solidTraction;
		value	nonuniform List<vector>
10
(
(0.018015131806009523 -0.040539327152125396 0.0) 
(0.02365869830832963 -0.049291469169647724 0.0) 
(0.030625161107993504 -0.051709341355773625 0.0) 
(0.0383932741415042 -0.05319780148843003 0.0) 
(0.04619546073853689 -0.05459123752466951 0.0) 
(0.05389573938886957 -0.054591218531350794 0.0) 
(0.06169933368934483 -0.05319512792295041 0.0) 
(0.06947595672423944 -0.051688636487984135 0.0) 
(0.07641322168451672 -0.04922035421013567 0.0) 
(0.08196356584497225 -0.04036241885711745 0.0) 
)
;
	}
	left
	{
		type	fixedValue;
		value	uniform (0.0 0.0 0.0);
	}
	right
	{
		type	fixedValue;
		value	uniform (0.1 0.0 0.0);
	}
	frontAndBackPlanes
	{
		type	empty;
	}
}
