/*
 _____     _____     _____ _____ _____ _____    |  High-order Python FOAM
|  |  |___|  _  |_ _|   __|     |  _  |     |   |  Python Version: 3.10
|     | . |   __| | |   __|  |  |     | | | |   |  Code Version: 0.0
|__|__|___|__|  |_  |__|  |_____|__|__|_|_|_|   |  License: GPLv3
                |___|
*/
FoamFile
{
    version     2.0;
    format      ascii;
    class       volScalarField;
    location    "20.0";
    object     p;
}

dimensions      [0 0 0 1 0 0 0]; 

internalField   nonuniform List<scalar>
100
(
383610.6364980001 
61430.43968958728 
-103232.15764485048 
-125536.78379528181 
-116255.04998355059 
-116102.56276756685 
-124574.48631538652 
-101079.16493456677 
68515.93447307644 
375328.841463109 
875109.4542319204 
440513.2135384654 
165662.9787553535 
72546.85376683585 
56635.480704088484 
57212.033003933386 
74340.83766711049 
168757.48798131282 
441178.33039980347 
870495.7618746571 
994453.58018098 
590098.1506978172 
290341.242562129 
169466.36777331284 
137254.5194405577 
137621.21914238838 
170530.62973465948 
291540.0148263161 
590249.2469821866 
992820.0276644452 
1118306.3082976171 
674657.8736219873 
381419.0101980992 
254226.98610281514 
215305.3730174314 
215449.41148644788 
254591.7907927328 
381767.8711284649 
674461.8034974884 
1118428.2142225457 
1172969.5121867599 
723030.215748521 
428488.6689503909 
301584.9105155602 
261022.66499877066 
261032.58121820362 
301604.10041627986 
428448.69785566675 
722910.3032756338 
1173087.1705477994 
1173915.886121411 
723188.0037243321 
428385.37992819975 
301407.15242134733 
260822.10584635206 
260783.29155136918 
301292.09991002706 
428141.97033859126 
722802.9165911006 
1173626.1659775171 
1121175.2650120547 
675300.2732736121 
381108.62919073546 
253727.085808462 
214717.210515247 
214678.77289446542 
253581.4834373658 
380730.24663645856 
674250.539440486 
1120201.3257602626 
999925.5050569202 
590784.1727251351 
289711.0484418968 
168723.31983309676 
136366.11596914532 
136413.24781368562 
168703.81560469855 
289493.96128685644 
589358.8666513202 
996407.7730776169 
881917.4635154492 
440738.80296854186 
165132.90711122466 
71814.79085798311 
55924.79185647429 
56003.94366790572 
72150.09910109588 
165136.88100909683 
440166.438684951 
875466.039161098 
384084.9859550668 
63217.45136909141 
-103171.01274189334 
-125487.55571873876 
-116230.96487965446 
-116291.13541329675 
-125632.76522479276 
-103172.82964513965 
61579.12156442688 
383476.05861733994 
)
;

boundaryField
{
	bottom
	{
		type	pressureTraction;
	}
	top
	{
		type	pressureTraction;
	}
	left
	{
		type	fixedValueFromZeroGrad;
	}
	right
	{
		type	fixedValueFromZeroGrad;
	}
	frontAndBackPlanes
	{
		type	empty;
	}
}
