/*
 _____     _____     _____ _____ _____ _____    |  High-order Python FOAM
|  |  |___|  _  |_ _|   __|     |  _  |     |   |  Python Version: 3.10
|     | . |   __| | |   __|  |  |     | | | |   |  Code Version: 0.0
|__|__|___|__|  |_  |__|  |_____|__|__|_|_|_|   |  License: GPLv3
                |___|
*/
FoamFile
{
    version     2.0;
    format      ascii;
    class       volScalarField;
    location    "4.0";
    object     p;
}

dimensions      [0 0 0 1 0 0 0]; 

internalField   nonuniform List<scalar>
100
(
177541.54350064206 
169249.08573497095 
109412.38564557253 
96228.45405729019 
88227.455748545 
88276.53563658775 
96403.10893338725 
109689.3312102143 
169879.43730398035 
176422.71155965075 
525884.1012358869 
478469.2260712512 
416236.8961592935 
371677.8396278725 
349962.9946315433 
350068.2518512533 
371953.20707902155 
416604.6123677764 
478497.1996791535 
525264.1991839418 
807341.6086873427 
759838.113534551 
678764.877566667 
613162.3049635035 
578437.55772856 
578524.1573358105 
613394.1100781319 
679021.8873344957 
759938.3259980266 
807328.4616798616 
1026229.3090564662 
945157.878522484 
846156.8391646823 
768539.6770012358 
727322.8151135702 
727377.8990718498 
768687.3137130376 
846348.1051671528 
945275.654306747 
1026671.1063660021 
1127312.891791189 
1034825.5446526902 
925145.5525500637 
841816.7484960596 
797844.3149990955 
797870.9760044755 
841892.4230839118 
925260.1988166476 
1035010.4409721609 
1127657.8267876762 
1127645.2773211391 
1034953.648014697 
925169.5397969226 
841752.3593369536 
797725.4405421274 
797723.9087559145 
841750.0575213132 
925170.8895493544 
1035005.386843416 
1127829.9701426737 
1027157.3685789257 
945615.420009132 
846213.5462990577 
768355.6563249499 
726987.0087824636 
726964.1207137327 
768283.9478958693 
846076.2278219315 
945339.8759907353 
1027170.1569244114 
808946.3718266918 
760408.1318374325 
678799.5617904515 
612878.659591934 
577918.0283851292 
577912.5423850905 
612776.127857297 
678595.5895213999 
759955.1156476357 
808241.7954663255 
527543.513865738 
478922.3928127591 
416274.76180657116 
371386.7043397803 
349493.66757772834 
349449.37123731367 
371304.0059657519 
416047.60789702943 
478648.99950836215 
526242.3102709665 
177884.69981236852 
169805.78578213416 
109457.26329111654 
96121.49237784038 
88013.94116235842 
87997.03088837219 
96061.7431054496 
109385.39338933931 
169292.68048857295 
177634.09115983773 
)
;

boundaryField
{
	bottom
	{
		type	pressureTraction;
	}
	top
	{
		type	pressureTraction;
	}
	left
	{
		type	fixedValueFromZeroGrad;
	}
	right
	{
		type	fixedValueFromZeroGrad;
	}
	frontAndBackPlanes
	{
		type	empty;
	}
}
