/*
 _____     _____     _____ _____ _____ _____    |  High-order Python FOAM
|  |  |___|  _  |_ _|   __|     |  _  |     |   |  Python Version: 3.10
|     | . |   __| | |   __|  |  |     | | | |   |  Code Version: 0.0
|__|__|___|__|  |_  |__|  |_____|__|__|_|_|_|   |  License: GPLv3
                |___|
*/
FoamFile
{
    version     2.0;
    format      ascii;
    class       volScalarField;
    location    "4.0";
    object     pCorr;
}

dimensions      [0 0 0 1 0 0 0]; 

internalField   nonuniform List<scalar>
100
(
42297.16794656269 
23526.690309294205 
2305.3832302189303 
-6976.48635078439 
-11365.438148743044 
-11340.640157342703 
-6889.064764445171 
2431.770008634048 
23808.01292217153 
41790.68368361876 
83255.03871056969 
54667.88573436699 
18599.990972651765 
-6847.116826954452 
-18822.291420419147 
-18770.056010669305 
-6709.574021816301 
18767.419772130823 
54657.42647205714 
82961.47831499025 
89055.49462003868 
55326.76221519799 
8923.799363138507 
-25634.679777759946 
-43174.3531486811 
-43132.54825311006 
-25528.19831193681 
9028.131925220978 
55353.198234301286 
89024.44156310703 
89383.2851563648 
46825.64781556555 
-4127.339103635431 
-42638.8359834234 
-62569.52437926913 
-62545.18365680833 
-42577.64684762072 
-4057.5977293004953 
46860.35321613311 
89539.28001648813 
86705.0023009004 
41031.56148044638 
-12580.935269829757 
-52577.461094722436 
-73328.35422859204 
-73319.10952686207 
-52553.907715414236 
-12549.602742187048 
41086.56306124231 
86820.56436003829 
86847.56724013323 
41088.744527565956 
-12566.561993339086 
-52598.14812543431 
-73372.14079205795 
-73376.5954744751 
-52612.28470971764 
-12589.355423393903 
41081.32526317442 
86889.67216911002 
89784.34176859674 
47021.97429855643 
-4090.279535469266 
-42696.98547031288 
-62696.022931139465 
-62709.613709945384 
-42744.646734351685 
-4178.388195712964 
46873.450225433415 
89743.4855424191 
89749.66471131687 
55562.22913321639 
8960.269203074631 
-25722.697003276015 
-43366.65896055134 
-43378.0088421579 
-25787.510495708382 
8838.463969082757 
55329.21765722491 
89408.21358199697 
83955.26874156264 
54874.96394193011 
18636.272700005622 
-6950.627902281737 
-18994.50371361344 
-19012.609652365485 
-6986.260571105912 
18512.664171997363 
54706.722528915416 
83366.68080999509 
42446.07238217423 
23771.980133181303 
2340.0774121560316 
-7008.604191227156 
-11452.158052122526 
-11456.588616891886 
-7037.3523514785065 
2288.6669392908047 
23530.748144113175 
42323.96558276044 
)
;

boundaryField
{
	bottom
	{
		type	fixedValue;
		value	uniform 0.0;
	}
	top
	{
		type	fixedValue;
		value	uniform 0.0;
	}
	left
	{
		type	zeroGradient;
	}
	right
	{
		type	zeroGradient;
	}
	frontAndBackPlanes
	{
		type	empty;
	}
}
