/*
 _____     _____     _____ _____ _____ _____    |  High-order Python FOAM
|  |  |___|  _  |_ _|   __|     |  _  |     |   |  Python Version: 3.10
|     | . |   __| | |   __|  |  |     | | | |   |  Code Version: 0.0
|__|__|___|__|  |_  |__|  |_____|__|__|_|_|_|   |  License: GPLv3
                |___|
*/
FoamFile
{
    version     2.0;
    format      ascii;
    class       volVectorField;
    location    "4.0";
    object     U;
}

dimensions      [0 1 0 0 0 0 0]; 

internalField   nonuniform List<vector>
100
(
(0.01781464765313154 0.012959938534023534 0.0) 
(0.031020327501732663 0.034369885585891616 0.0) 
(0.036810412933442296 0.04718694445169848 0.0) 
(0.042554598010731255 0.054682715486579395 0.0) 
(0.047560460749711216 0.058211603834201875 0.0) 
(0.05250243644905083 0.05818515331903816 0.0) 
(0.05752272504305844 0.054602016191504676 0.0) 
(0.0633027356795883 0.04706074023153635 0.0) 
(0.06914181331571627 0.03419488341143297 0.0) 
(0.08255934658543303 0.01299057570195717 0.0) 
(0.011631000131666567 0.013248172090096717 0.0) 
(0.019958869228837085 0.028552810404694057 0.0) 
(0.029386869319838433 0.040340026704815256 0.0) 
(0.0378502797776407 0.04718954644917521 0.0) 
(0.04601780518760052 0.05039025261444674 0.0) 
(0.054077323869157694 0.05036698185104194 0.0) 
(0.06225004365679166 0.04712254368857582 0.0) 
(0.07071521413811685 0.04024070532693687 0.0) 
(0.08012605466821192 0.028467105994171498 0.0) 
(0.08833950167023932 0.013224946265049456 0.0) 
(0.011588813240570074 0.009755841380742316 0.0) 
(0.017282499511323234 0.02184416231393554 0.0) 
(0.025750732277373452 0.030356978924969625 0.0) 
(0.03522769884411502 0.035816454773747855 0.0) 
(0.04505720592320583 0.038367957460844024 0.0) 
(0.05499211455678896 0.03835013712203729 0.0) 
(0.06481509527173611 0.03576811000673886 0.0) 
(0.07427813550330041 0.030293869880397842 0.0) 
(0.08272022284425497 0.021795778777343507 0.0) 
(0.08843647933041533 0.009746530051358683 0.0) 
(0.012423504968874805 0.006213889530883459 0.0) 
(0.01637760515211326 0.013625225326751124 0.0) 
(0.024315696933117994 0.018840049102948973 0.0) 
(0.03396124002987315 0.022240393511193522 0.0) 
(0.04456233439395832 0.023886375435603808 0.0) 
(0.055448214012057837 0.02387448623179793 0.0) 
(0.06604218067643752 0.022208916165357195 0.0) 
(0.07567392535840126 0.018802215467858163 0.0) 
(0.08359849739197009 0.013597380462254687 0.0) 
(0.08746748380299459 0.00620508834678769 0.0) 
(0.013092626489197588 0.002095128232121217 0.0) 
(0.01620333063138709 0.004619108706015901 0.0) 
(0.02381901338925329 0.006363424009996747 0.0) 
(0.03349590769828365 0.007510617295472196 0.0) 
(0.04436748048903533 0.008069643655040556 0.0) 
(0.055621462204892246 0.008061802178316351 0.0) 
(0.06648783930816078 0.007490053187836729 0.0) 
(0.07615731280604877 0.006337912389336248 0.0) 
(0.08377031489606243 0.004602565905454751 0.0) 
(0.08690355681703986 0.0020889733316599773 0.0) 
(0.01313685420316938 -0.0020911304849916194 0.0) 
(0.016215136482040062 -0.004642420399616898 0.0) 
(0.02383103115089837 -0.00640991735788089 0.0) 
(0.03350308662235662 -0.007572908649481649 0.0) 
(0.04436932489621898 -0.008146764973741902 0.0) 
(0.05561862512306001 -0.00815210008993771 0.0) 
(0.06648093161126234 -0.007587465120621338 0.0) 
(0.07614696360484095 -0.006429763186570943 0.0) 
(0.08376259177973731 -0.004665680026626851 0.0) 
(0.08685985536175214 -0.0021035873488231323 0.0) 
(0.012435270672254192 -0.006211079073674533 0.0) 
(0.016427754004399622 -0.01365339892832942 0.0) 
(0.02435483053862392 -0.01888216767993664 0.0) 
(0.033982820678248975 -0.02229492990308194 0.0) 
(0.044568103105664905 -0.023958689374944737 0.0) 
(0.05544045774889579 -0.023962312665104294 0.0) 
(0.06602160256524474 -0.022305624144111958 0.0) 
(0.07564290813423831 -0.018896965798467016 0.0) 
(0.08355656406399499 -0.013672058325339976 0.0) 
(0.08747805412027779 -0.00622402568656865 0.0) 
(0.0117534334332451 -0.009756503764885464 0.0) 
(0.01739145918648411 -0.021876201467627244 0.0) 
(0.025815131227394723 -0.030378367080945354 0.0) 
(0.03526321057037341 -0.03585822632459106 0.0) 
(0.0450736458080737 -0.03843407815429042 0.0) 
(0.0549796089770288 -0.03843270383970302 0.0) 
(0.06478046188698701 -0.03586626470789339 0.0) 
(0.07422598155671585 -0.030392945981851733 0.0) 
(0.08265805038875898 -0.021882020871649636 0.0) 
(0.08824383335263529 -0.009760381324793491 0.0) 
(0.011943655864248205 -0.01323525367969442 0.0) 
(0.020082152150223728 -0.028533709763844277 0.0) 
(0.029466412688480405 -0.04034021484244333 0.0) 
(0.03789745441063281 -0.04721939424146309 0.0) 
(0.04602882202242179 -0.05044361879681523 0.0) 
(0.05406349153591046 -0.05044893735145399 0.0) 
(0.06220413880349395 -0.047225904402364384 0.0) 
(0.07063652641964971 -0.040361304513036086 0.0) 
(0.0800189305402928 -0.0285663080797479 0.0) 
(0.08836796120020116 -0.013249105970324708 0.0) 
(0.01785451173777177 -0.012949579395209264 0.0) 
(0.031146762511085255 -0.034292210656190446 0.0) 
(0.03690981639557794 -0.047171063306624274 0.0) 
(0.042626408212754784 -0.05469901027686651 0.0) 
(0.04760025461322139 -0.05826166070543852 0.0) 
(0.05250391908484859 -0.05826392986752392 0.0) 
(0.05748036863711426 -0.05470705683450197 0.0) 
(0.06320191185016294 -0.04718540322807559 0.0) 
(0.06897466799271425 -0.03436783089581905 0.0) 
(0.08215898205768266 -0.012960806696390598 0.0) 
)
;

boundaryField
{
	bottom
	{
		type	solidTraction;
		value	nonuniform List<vector>
10
(
(0.021654254543062735 0.013579989132943428 0.0) 
(0.0337563790941834 0.03376825417405318 0.0) 
(0.040682105777849156 0.04918626639881361 0.0) 
(0.044771525601931 0.05767084819997854 0.0) 
(0.0483299763137147 0.06160920398998734 0.0) 
(0.051720579420050865 0.06157984511853558 0.0) 
(0.05530075401519083 0.057582591993775606 0.0) 
(0.05944426143295159 0.049040674082846306 0.0) 
(0.06651099704970133 0.03363469701057392 0.0) 
(0.07880896897321187 0.013599180492180077 0.0) 
)
;
	}
	top
	{
		type	solidTraction;
		value	nonuniform List<vector>
10
(
(0.021651435958878026 -0.01354118971608652 0.0) 
(0.03383307558619967 -0.03369773331226182 0.0) 
(0.04079037060725622 -0.04915198685771497 0.0) 
(0.044855371497480014 -0.05768202831832317 0.0) 
(0.048381497825973285 -0.061658058389147084 0.0) 
(0.051728870460154175 -0.06166031830530823 0.0) 
(0.055256298394075434 -0.0576912040694211 0.0) 
(0.05932770066350029 -0.049180921090863736 0.0) 
(0.06624024983443642 -0.03376016349232145 0.0) 
(0.07832514496674989 -0.013574574377951194 0.0) 
)
;
	}
	left
	{
		type	fixedValue;
		value	uniform (0.0 0.0 0.0);
	}
	right
	{
		type	fixedValue;
		value	uniform (0.1 0.0 0.0);
	}
	frontAndBackPlanes
	{
		type	empty;
	}
}
