/*
 _____     _____     _____ _____ _____ _____    |  High-order Python FOAM
|  |  |___|  _  |_ _|   __|     |  _  |     |   |  Python Version: 3.10
|     | . |   __| | |   __|  |  |     | | | |   |  Code Version: 0.0
|__|__|___|__|  |_  |__|  |_____|__|__|_|_|_|   |  License: GPLv3
                |___|
*/
FoamFile
{
    version     2.0;
    format      ascii;
    class       volScalarField;
    location    "59.0";
    object     p;
}

dimensions      [0 0 0 1 0 0 0]; 

internalField   nonuniform List<scalar>
100
(
409177.92397722026 
-116956.34053445625 
-194032.97988562225 
-149378.46043236583 
-123467.76227759811 
-123693.99612385943 
-149282.21981413514 
-191417.4180878632 
-93716.20009082701 
388770.56902119116 
1253230.9146138383 
399509.96777175216 
152818.15857089957 
160640.93614544484 
185550.97129175396 
185964.42641381736 
162667.15392109018 
159546.79833865873 
403050.4262165991 
1242863.1177444845 
1370846.1195233376 
541802.5449651516 
226468.18570407326 
201781.39413042148 
217467.6502848918 
217761.3908702782 
203085.64715457702 
228561.93894569855 
542572.4618721352 
1365489.5098530657 
1527560.1440879167 
611960.2111880237 
282527.7833968612 
237264.74239986375 
244105.98077867535 
244184.60388300195 
237558.33572250733 
282796.4596626078 
611053.7824011252 
1526212.054099667 
1603872.275147166 
664116.2536333264 
318530.6120002078 
265916.1787426488 
268096.41939530533 
268050.1817529648 
265805.6024804473 
318216.08572596655 
663344.6604604871 
1602664.442122963 
1605671.0397226918 
664106.8352790377 
318172.474859075 
265591.55821567756 
267852.2482885008 
267792.7912799719 
265466.21024868154 
317789.16110321187 
663122.6762692005 
1604055.2845500365 
1533060.1177219665 
612044.8336664508 
281310.715540501 
236355.0752420963 
243414.69907788388 
243432.47007823142 
236416.2607595302 
281146.66563675407 
610485.5468759488 
1530412.8962786074 
1381776.5060532033 
541297.2084934432 
224045.38493258145 
200277.39557862637 
216423.76054395305 
216575.41231710458 
200828.46017401878 
224898.8261283175 
539833.1430267914 
1373730.2669281866 
1268841.2995838907 
397383.7414547459 
150496.06601659654 
159039.54951127837 
184541.70387941203 
184760.76829245302 
160045.9204616778 
151967.51891298557 
398156.91209959815 
1253007.773174998 
407990.8008461739 
-113787.13083915191 
-194234.115701536 
-148942.54341351794 
-122768.41100769739 
-122886.94376075856 
-149254.79461581176 
-194287.33954607125 
-117104.81085365475 
408242.30854225036 
)
;

boundaryField
{
	bottom
	{
		type	pressureTraction;
	}
	top
	{
		type	pressureTraction;
	}
	left
	{
		type	fixedValueFromZeroGrad;
	}
	right
	{
		type	fixedValueFromZeroGrad;
	}
	frontAndBackPlanes
	{
		type	empty;
	}
}
