/*
 _____     _____     _____ _____ _____ _____    |  High-order Python FOAM
|  |  |___|  _  |_ _|   __|     |  _  |     |   |  Python Version: 3.10
|     | . |   __| | |   __|  |  |     | | | |   |  Code Version: 0.0
|__|__|___|__|  |_  |__|  |_____|__|__|_|_|_|   |  License: GPLv3
                |___|
*/
FoamFile
{
    version     2.0;
    format      ascii;
    class       volVectorField;
    location    "54.0";
    object     U;
}

dimensions      [0 1 0 0 0 0 0]; 

internalField   nonuniform List<vector>
100
(
(0.016190950796540173 0.0349595307066041 0.0) 
(0.02056094680510447 0.04680558513013686 0.0) 
(0.02856212091699746 0.04731428752862338 0.0) 
(0.03735422988024926 0.04956895311368837 0.0) 
(0.045918869249628125 0.05101814398258467 0.0) 
(0.054365763402823716 0.05100820962503491 0.0) 
(0.06295232789290911 0.04952933617549237 0.0) 
(0.07181658369506126 0.047268934111171355 0.0) 
(0.07965499724046449 0.046376098806447205 0.0) 
(0.08479436791373755 0.03444175989656491 0.0) 
(0.015257086153249893 0.022904466534042822 0.0) 
(0.015246057438915515 0.035960280450389154 0.0) 
(0.02469638487513276 0.040118515908780746 0.0) 
(0.03500773783998905 0.04187732444904536 0.0) 
(0.04513607769592874 0.04283891168216401 0.0) 
(0.055149098304325725 0.042816562889168464 0.0) 
(0.0652949369281612 0.04180077474762255 0.0) 
(0.07561160761142662 0.03993980760918814 0.0) 
(0.08505960854037056 0.035616670614258716 0.0) 
(0.0848374263502084 0.02277796258695298 0.0) 
(0.011275562828333618 0.012734479533573732 0.0) 
(0.011377540874729229 0.024274666154379038 0.0) 
(0.021115795943453027 0.028725963054400023 0.0) 
(0.032846395035804075 0.030618143429127696 0.0) 
(0.04440769645411569 0.0313396407913733 0.0) 
(0.05581990290016854 0.03131043407933428 0.0) 
(0.0673736317948911 0.030524892024672352 0.0) 
(0.07906957412458177 0.028557811696480678 0.0) 
(0.0887159319743583 0.024099320043194192 0.0) 
(0.08880620902802017 0.012687727639115442 0.0) 
(0.011332889287377657 0.007078729354779629 0.0) 
(0.008941796878315665 0.01384565948500895 0.0) 
(0.018776800028163322 0.017215041956723968 0.0) 
(0.031230852129078928 0.018665644476433773 0.0) 
(0.04383602212703102 0.019186008663515632 0.0) 
(0.056321466996555505 0.019161196519189322 0.0) 
(0.06890684839957312 0.01859227871178454 0.0) 
(0.08131363225638664 0.017109705862693707 0.0) 
(0.0910967190973454 0.013751904616672509 0.0) 
(0.08862012543224922 0.0070590834383854745 0.0) 
(0.011474095287726426 0.002262332358392737 0.0) 
(0.008127403658377759 0.00454583186746433 0.0) 
(0.017673812627194054 0.005720248755802393 0.0) 
(0.03041476251281911 0.006272025202389527 0.0) 
(0.04352624389298867 0.006462293939214182 0.0) 
(0.05657641230314375 0.006447121196258645 0.0) 
(0.06966703119693779 0.006229957253494657 0.0) 
(0.08237224358428527 0.0056629754294565925 0.0) 
(0.09188595496739665 0.004498792737887637 0.0) 
(0.0885369007612584 0.0022427445331806837 0.0) 
(0.011505916350810112 -0.002213811706816149 0.0) 
(0.008128942867644373 -0.0045336145539066714 0.0) 
(0.017676146211559145 -0.00573084555812324 0.0) 
(0.030413273863487 -0.006290211518568807 0.0) 
(0.04351681927710949 -0.00649077771354657 0.0) 
(0.05655854855333035 -0.006496123848554812 0.0) 
(0.06964402350107869 -0.006305073082229735 0.0) 
(0.0823508557100256 -0.0057526825762534125 0.0) 
(0.09187664392909495 -0.004562657341964499 0.0) 
(0.08850307358387655 -0.0022372395481346755 0.0) 
(0.011368737240361663 -0.007033877192587346 0.0) 
(0.00895659505386197 -0.013841897906502762 0.0) 
(0.01879002500062017 -0.01722046073563263 0.0) 
(0.031227668130793376 -0.018667927560351353 0.0) 
(0.043808138027472375 -0.019196829681328284 0.0) 
(0.05626702112928882 -0.019194454310182137 0.0) 
(0.06883301771572961 -0.018661028422075468 0.0) 
(0.08124407694656557 -0.01720997273981956 0.0) 
(0.09104930090924705 -0.013845111322604643 0.0) 
(0.08860546904905084 -0.007065536571545008 0.0) 
(0.011407056743477391 -0.012720364844848488 0.0) 
(0.011449705020021106 -0.024290583907122753 0.0) 
(0.021144694600404464 -0.028703518604892685 0.0) 
(0.032842987887196924 -0.030586789680501818 0.0) 
(0.04436357708564075 -0.03131408873219503 0.0) 
(0.05572894886966464 -0.03130706838446907 0.0) 
(0.06724270888118132 -0.030567137885680693 0.0) 
(0.07892474375056267 -0.02867238534397715 0.0) 
(0.08862488969445877 -0.024242753892221833 0.0) 
(0.08862417937415104 -0.012735712262873506 0.0) 
(0.015724722338060756 -0.02299452740052886 0.0) 
(0.01532073895107561 -0.03593241504077905 0.0) 
(0.024730028393085274 -0.0400514170668367 0.0) 
(0.03499632761759828 -0.04179505865082502 0.0) 
(0.04507394512479045 -0.04275856585622906 0.0) 
(0.05503118479514811 -0.04275607089394433 0.0) 
(0.06511456446295609 -0.04177968751444962 0.0) 
(0.07539221931770167 -0.040016656933174063 0.0) 
(0.08479516370514097 -0.03588653016224189 0.0) 
(0.08476435687230052 -0.02290115233839995 0.0) 
(0.016185702473168737 -0.03509138169719562 0.0) 
(0.020632587650735754 -0.046730934536483394 0.0) 
(0.028562064663670738 -0.047214637856647694 0.0) 
(0.03732842103200901 -0.049439255858198 0.0) 
(0.04585189668336785 -0.050894561395455236 0.0) 
(0.054244750256904645 -0.050893235469801575 0.0) 
(0.0627717681119811 -0.049436332652884094 0.0) 
(0.07153828736475108 -0.047188070877461484 0.0) 
(0.0795138025526876 -0.046691063481085086 0.0) 
(0.08384799414272723 -0.03491379387733792 0.0) 
)
;

boundaryField
{
	bottom
	{
		type	solidTraction;
		value	nonuniform List<vector>
10
(
(0.017674313939973083 0.040952482527271905 0.0) 
(0.02342919731182325 0.04928155171206748 0.0) 
(0.030628185044607313 0.05161742278542375 0.0) 
(0.038479409663816896 0.0532973264054802 0.0) 
(0.04628809764340633 0.05479604435641093 0.0) 
(0.054001971656541345 0.05479077489020448 0.0) 
(0.061843273445282954 0.05328481947712894 0.0) 
(0.06972599145043759 0.0515361147386361 0.0) 
(0.07708712928065987 0.048865777462840314 0.0) 
(0.08344290468865018 0.0403269948548917 0.0) 
)
;
	}
	top
	{
		type	solidTraction;
		value	nonuniform List<vector>
10
(
(0.01759334205170809 -0.041076381602033085 0.0) 
(0.023415848663254236 -0.04923809292732083 0.0) 
(0.03062311818467376 -0.0514990711186163 0.0) 
(0.038442838578065984 -0.05315254411633453 0.0) 
(0.04621525554461677 -0.05464999037473659 0.0) 
(0.05387779826267769 -0.05465011048920803 0.0) 
(0.06165122142810511 -0.053150063579952306 0.0) 
(0.069479645363189 -0.05147770054367756 0.0) 
(0.07665668087989343 -0.049162303559532834 0.0) 
(0.08238156748922877 -0.040885837602564756 0.0) 
)
;
	}
	left
	{
		type	fixedValue;
		value	uniform (0.0 0.0 0.0);
	}
	right
	{
		type	fixedValue;
		value	uniform (0.1 0.0 0.0);
	}
	frontAndBackPlanes
	{
		type	empty;
	}
}
