/*
 _____     _____     _____ _____ _____ _____    |  High-order Python FOAM
|  |  |___|  _  |_ _|   __|     |  _  |     |   |  Python Version: 3.10
|     | . |   __| | |   __|  |  |     | | | |   |  Code Version: 0.0
|__|__|___|__|  |_  |__|  |_____|__|__|_|_|_|   |  License: GPLv3
                |___|
*/
FoamFile
{
    version     2.0;
    format      ascii;
    class       volScalarField;
    location    "86.0";
    object     p;
}

dimensions      [0 0 0 1 0 0 0]; 

internalField   nonuniform List<scalar>
100
(
387355.7231779761 
-153569.24334582622 
-203826.76782299997 
-152893.16992690932 
-135976.8257990681 
-136245.05782160096 
-153364.5508430882 
-201844.71899493213 
-123978.11889621956 
363375.71671961725 
1358488.6814642856 
379034.7237747641 
155335.08049274306 
182186.50561519005 
205289.75281056977 
205588.00959976265 
183932.1884891976 
162813.57236571776 
383670.3605028796 
1346468.1232408725 
1470053.995334777 
510652.72141987353 
209469.1436101719 
209678.47982458456 
227211.98063450187 
227439.69808762558 
210903.6423384202 
211664.71683525288 
511553.09831485915 
1462767.3624453563 
1635453.415089345 
570616.6208912414 
255769.3652977192 
237666.4637566682 
248645.59280971016 
248697.1206943417 
237910.14851446846 
255968.64924241425 
569375.3342576445 
1632929.1056811651 
1717747.7170168976 
623104.8731658157 
291010.700553133 
266916.024951622 
274125.70348656864 
274066.86315680493 
266781.30551447876 
290630.6177398688 
622050.0987048809 
1715524.1015089294 
1719815.0787097614 
623006.4050475751 
290568.51003236097 
266559.58814679354 
273871.66588010645 
273801.81036759145 
266436.797854666 
290172.3203300286 
621792.4974903222 
1717310.9389672894 
1641808.8703033987 
570297.3310880392 
254225.95125771017 
236675.6195852962 
247920.39584959103 
247932.31247304776 
236775.76804728893 
254191.0125290884 
568709.4714448961 
1638233.0965657786 
1482759.2672071576 
509428.27778096497 
206365.87843867173 
207953.40906863465 
226034.8257842309 
226172.85522230947 
208633.37042685036 
207745.54516945893 
508294.8781763609 
1472964.4825178338 
1377544.8564756908 
375764.59100730025 
152297.46512286126 
180242.37526446415 
203995.21916371252 
204191.7959321114 
181391.324753241 
154453.97219101532 
377478.5028857647 
1358035.5302479968 
385124.88181268354 
-149894.54429039508 
-204059.46132105324 
-152225.993087731 
-135151.54171450238 
-135307.07912072577 
-152592.14614423705 
-204037.1489343796 
-153650.17841348064 
386146.84582571813 
)
;

boundaryField
{
	bottom
	{
		type	pressureTraction;
	}
	top
	{
		type	pressureTraction;
	}
	left
	{
		type	fixedValueFromZeroGrad;
	}
	right
	{
		type	fixedValueFromZeroGrad;
	}
	frontAndBackPlanes
	{
		type	empty;
	}
}
