/*
 _____     _____     _____ _____ _____ _____    |  High-order Python FOAM
|  |  |___|  _  |_ _|   __|     |  _  |     |   |  Python Version: 3.10
|     | . |   __| | |   __|  |  |     | | | |   |  Code Version: 0.0
|__|__|___|__|  |_  |__|  |_____|__|__|_|_|_|   |  License: GPLv3
                |___|
*/
FoamFile
{
    version     2.0;
    format      ascii;
    class       volScalarField;
    location    "86.0";
    object     pCorr;
}

dimensions      [0 0 0 1 0 0 0]; 

internalField   nonuniform List<scalar>
100
(
-717.7369686910832 
-785.332311937022 
-210.6420004551084 
-79.56344269920918 
-321.6468101453201 
-320.8518315320835 
-94.98602849314807 
-233.5032262288263 
-612.8252138215545 
-808.7810466797397 
2822.093727361321 
-579.6605276202878 
40.87767914684593 
509.2556159512164 
450.8573936367297 
448.74591139564876 
501.89988185297756 
58.08719449475101 
-551.5277370284692 
2777.0233238776837 
2545.890370911708 
-921.5313840778141 
-469.4833228355645 
180.38214805502045 
191.14970538446477 
189.98909846581853 
179.1481303331423 
-466.19356806420933 
-917.8944232924413 
2486.9236553069245 
2771.816020311838 
-1224.926555806324 
-702.6269776104157 
18.488225896785963 
71.33729275947431 
71.04629238463117 
18.314431274345164 
-702.4559559172549 
-1232.0189055055137 
2734.150487167259 
2929.565567454296 
-1215.2905222777406 
-705.8624307277547 
55.36148785825093 
123.85173154174916 
123.75109864980992 
55.63246627340963 
-705.4992835147767 
-1220.664057501012 
2897.991844003205 
2936.6910966188775 
-1217.9773373655914 
-708.051318823127 
54.78861006159562 
123.75905557800019 
123.50159226362564 
55.25016247015029 
-706.8358247702733 
-1222.2419432945535 
2909.392830859897 
2794.6434164888688 
-1237.6702782645962 
-711.3056448444993 
17.247506399897023 
70.82675242121064 
70.42751740379184 
18.050594233685846 
-706.7198758928034 
-1235.8884893728712 
2766.1948550009965 
2593.244323402951 
-943.5309630989773 
-488.0850206391977 
175.4488690913536 
187.600625744474 
186.7278338173939 
178.1036615220611 
-472.66987492819965 
-931.4770889997695 
2543.2485588039567 
2920.4262513087697 
-613.1871271585619 
20.758789843437174 
500.373871897505 
442.5140372234548 
441.34767279280436 
503.2468001705398 
40.0882783345936 
-584.4875089140932 
2814.952104716254 
-749.8507254737561 
-771.1754181320894 
-211.1473165340266 
-71.784707794353 
-318.0381219583494 
-319.6731761984238 
-74.2284457798516 
-208.92442356257098 
-782.4704228887769 
-724.8911877073364 
)
;

boundaryField
{
	bottom
	{
		type	fixedValue;
		value	uniform 0.0;
	}
	top
	{
		type	fixedValue;
		value	uniform 0.0;
	}
	left
	{
		type	zeroGradient;
	}
	right
	{
		type	zeroGradient;
	}
	frontAndBackPlanes
	{
		type	empty;
	}
}
