/*
 _____     _____     _____ _____ _____ _____    |  High-order Python FOAM
|  |  |___|  _  |_ _|   __|     |  _  |     |   |  Python Version: 3.10
|     | . |   __| | |   __|  |  |     | | | |   |  Code Version: 0.0
|__|__|___|__|  |_  |__|  |_____|__|__|_|_|_|   |  License: GPLv3
                |___|
*/
FoamFile
{
    version     2.0;
    format      ascii;
    class       volScalarField;
    location    "50.0";
    object     pCorr;
}

dimensions      [0 0 0 1 0 0 0]; 

internalField   nonuniform List<scalar>
100
(
-629.2422356284754 
-3117.929545506881 
-1081.4150307547432 
-357.65536841236553 
-698.275567238346 
-705.8060131597969 
-385.71599807164046 
-1092.3598095645102 
-2748.9180361456883 
-866.7149779126636 
6669.85136374073 
-1244.4173429657171 
-29.30726467864691 
1456.0819504743556 
1578.7418622951348 
1570.7581302624446 
1445.5604071732353 
32.67419839770941 
-1175.820603958599 
6563.642692676789 
6559.748687821222 
-1700.0987242106748 
-1292.3193642930937 
370.58449049323474 
763.19295784732 
758.2176465654217 
366.0462446638934 
-1283.8996538732451 
-1690.7727176555877 
6467.024518660401 
7097.635577700796 
-2205.9813189009687 
-2029.765450136595 
-363.59168952564704 
174.23867037598032 
170.89025121247573 
-370.73014056545946 
-2039.6634179635232 
-2230.1102802775167 
7047.535451793189 
7474.972621733853 
-2189.154011941774 
-2181.952931599057 
-499.839802637677 
87.11772887791052 
84.64781701790443 
-506.43577976876526 
-2194.2746703647567 
-2212.8173147611924 
7428.205966345058 
7491.727322491067 
-2193.439879844092 
-2187.023263046399 
-502.30158033691544 
86.54399046254241 
84.90621644997653 
-505.8286590756759 
-2195.192568707201 
-2214.128471786652 
7448.624129335466 
7149.94990667895 
-2223.1915026050992 
-2048.950373517058 
-370.45805278170377 
172.70673442825972 
172.62584058226605 
-368.93885063298455 
-2046.929462439244 
-2234.9728569089534 
7103.960997848005 
6668.383349153935 
-1733.411204613234 
-1331.3877673073198 
355.73192124257116 
758.5033978183855 
759.4747207283638 
365.9111133521697 
-1305.6839252630923 
-1726.4941819262626 
6570.241277615792 
6859.093781592722 
-1303.3166942101716 
-69.12374326466411 
1436.5006150558186 
1568.1203329078473 
1569.4629163667742 
1449.3876780619803 
-31.772058862409406 
-1261.0781911243412 
6656.53597757681 
-677.4843857936121 
-3089.7403192217666 
-1085.179215478493 
-347.7776499086075 
-687.6549447452071 
-687.6326234807879 
-347.7613384568986 
-1081.6221929384762 
-3119.1206508620135 
-646.7911178036187 
)
;

boundaryField
{
	bottom
	{
		type	fixedValue;
		value	uniform 0.0;
	}
	top
	{
		type	fixedValue;
		value	uniform 0.0;
	}
	left
	{
		type	zeroGradient;
	}
	right
	{
		type	zeroGradient;
	}
	frontAndBackPlanes
	{
		type	empty;
	}
}
