/*
 _____     _____     _____ _____ _____ _____    |  High-order Python FOAM
|  |  |___|  _  |_ _|   __|     |  _  |     |   |  Python Version: 3.10
|     | . |   __| | |   __|  |  |     | | | |   |  Code Version: 0.0
|__|__|___|__|  |_  |__|  |_____|__|__|_|_|_|   |  License: GPLv3
                |___|
*/
FoamFile
{
    version     2.0;
    format      ascii;
    class       volScalarField;
    location    "98.0";
    object     pCorr;
}

dimensions      [0 0 0 1 0 0 0]; 

internalField   nonuniform List<scalar>
100
(
-596.7505258283992 
-491.1330979142673 
-148.9667228943831 
-53.75458211313493 
-221.38115730903667 
-219.587369436315 
-64.89038918099963 
-168.60803181488512 
-362.1860808242693 
-662.1572023319835 
2133.2132955451643 
-457.7357347247405 
2.1439296218349995 
344.9437158486655 
308.62898864359767 
307.715550648356 
340.06031649680403 
14.00491955285248 
-437.47055880993526 
2098.021219744484 
1856.2552185617287 
-732.7682909056074 
-363.45181072274977 
121.33937116564287 
117.87241565675866 
117.35724341393934 
121.06679764918825 
-360.2574784276145 
-729.557163239096 
1807.9947523376532 
2027.272683332177 
-966.7026070066349 
-517.7946572301222 
18.917293316327054 
33.09291561134939 
33.029981493481316 
19.30075708278261 
-516.3789414250529 
-970.4337864544952 
1995.5522762060145 
2148.726613147031 
-955.3536129878083 
-511.2994186482948 
53.6769451996426 
73.32505360062713 
73.26307858053474 
54.140121898171735 
-509.89453710561975 
-957.8039241991321 
2122.5466935604504 
2153.998980307813 
-957.5391343426293 
-512.8947673343617 
53.401915481163655 
73.36244082381567 
73.091532853614 
53.749445242974986 
-511.21392313948456 
-959.4807569824034 
2131.4209647763805 
2044.134203613428 
-977.2804103223716 
-524.2126910730166 
18.51107884367437 
32.98727373281209 
32.52315775249365 
18.874903034077033 
-520.2020183538783 
-974.3972680106237 
2020.650464211035 
1891.2927749062164 
-750.67603107985 
-377.5481661374547 
118.20664635715912 
115.39076477151161 
114.50128161461676 
119.8011263746954 
-365.3053413217004 
-739.8405029320909 
1851.926867041387 
2210.063254723649 
-484.3385168505407 
-13.488790348556392 
338.4862651892888 
302.2495502606224 
301.17423530156015 
340.2829418713069 
1.5426044524124911 
-461.08073706532144 
2126.918586116368 
-623.0342724265952 
-480.27120656691653 
-149.30479141782146 
-47.055854612833436 
-218.25195787405565 
-219.7790926744755 
-49.36131147073431 
-147.48581896426842 
-488.5288562791736 
-601.9406588112078 
)
;

boundaryField
{
	bottom
	{
		type	fixedValue;
		value	uniform 0.0;
	}
	top
	{
		type	fixedValue;
		value	uniform 0.0;
	}
	left
	{
		type	zeroGradient;
	}
	right
	{
		type	zeroGradient;
	}
	frontAndBackPlanes
	{
		type	empty;
	}
}
