/*
 _____     _____     _____ _____ _____ _____    |  High-order Python FOAM
|  |  |___|  _  |_ _|   __|     |  _  |     |   |  Python Version: 3.10
|     | . |   __| | |   __|  |  |     | | | |   |  Code Version: 0.0
|__|__|___|__|  |_  |__|  |_____|__|__|_|_|_|   |  License: GPLv3
                |___|
*/
FoamFile
{
    version     2.0;
    format      ascii;
    class       volScalarField;
    location    "10.0";
    object     p;
}

dimensions      [0 0 0 1 0 0 0]; 

internalField   nonuniform List<scalar>
100
(
327702.6730296309 
154167.15534916328 
-9131.672877761786 
-71567.5515684039 
-96051.89717653942 
-95768.90167379961 
-70578.91519780186 
-7634.039424482315 
157265.6283046374 
323460.6652361942 
691350.3973298975 
441734.3118723767 
185869.8622873333 
27680.723421464078 
-39950.02773898877 
-39384.51455810883 
29212.041827480345 
187891.31793309422 
442203.87213042955 
689154.5439376895 
793130.0272005075 
538001.9579997692 
239733.25299498969 
40579.85396769123 
-52990.73867870374 
-52527.349727564506 
41798.93564209824 
241083.35350455876 
538656.571631314 
793039.0863775408 
867006.680600471 
565614.4326709524 
259519.306531614 
50571.832672630975 
-50382.98367401672 
-50080.470165048726 
51352.3310907151 
260461.82234297215 
566269.6653742889 
868213.025300693 
889554.5644851129 
576223.6081034053 
264231.5473553805 
54561.673679589774 
-47260.61829342817 
-47086.05182356741 
55024.50147193202 
264840.62203611946 
576941.3558547627 
890588.5117866115 
890451.8857909782 
576565.3019197421 
264322.1551543806 
54483.6873832541 
-47453.23811860185 
-47367.64002665883 
54700.93406152699 
264580.75485111214 
576877.6883941849 
890993.3172490633 
869602.0236790464 
566770.2409567244 
259762.14852411376 
50351.05112678166 
-50953.633599237335 
-50921.10670297235 
50378.28903665111 
259643.36639182857 
566221.6240569202 
869484.7367035283 
797692.7872814542 
539414.7532655273 
239976.73002362513 
40239.89245565506 
-53900.042723092774 
-53837.36299321249 
40181.44182278964 
239674.9322811616 
538273.1610570309 
795524.8091542708 
696253.931999991 
442920.97687502415 
186158.22447515375 
27276.514444963126 
-40724.90636869554 
-40723.839722955636 
27372.385627180396 
185779.39346153964 
442140.20021303394 
692148.4744443683 
328538.2735724598 
155843.8253262734 
-8787.386048562868 
-71553.50455869928 
-96363.45013823398 
-96348.20820056001 
-71594.24929392798 
-8890.224762065784 
154423.22918416097 
327798.3671698179 
)
;

boundaryField
{
	bottom
	{
		type	pressureTraction;
	}
	top
	{
		type	pressureTraction;
	}
	left
	{
		type	fixedValueFromZeroGrad;
	}
	right
	{
		type	fixedValueFromZeroGrad;
	}
	frontAndBackPlanes
	{
		type	empty;
	}
}
