/*
 _____     _____     _____ _____ _____ _____    |  High-order Python FOAM
|  |  |___|  _  |_ _|   __|     |  _  |     |   |  Python Version: 3.10
|     | . |   __| | |   __|  |  |     | | | |   |  Code Version: 0.0
|__|__|___|__|  |_  |__|  |_____|__|__|_|_|_|   |  License: GPLv3
                |___|
*/
FoamFile
{
    version     2.0;
    format      ascii;
    class       volScalarField;
    location    "10.0";
    object     pCorr;
}

dimensions      [0 0 0 1 0 0 0]; 

internalField   nonuniform List<scalar>
100
(
13164.085212968428 
-12401.254962187923 
-22752.586107979645 
-26382.668913274923 
-26385.54819695257 
-26354.4239372284 
-26265.571919931142 
-22558.32078914596 
-11965.405184048015 
12716.959012432568 
9787.53804702559 
-19538.484695679195 
-39123.719240505394 
-46267.222210665335 
-47541.40225091711 
-47477.23320680676 
-46084.5310795732 
-38858.825116840184 
-19439.93389448529 
9574.448741461461 
-16141.362978710258 
-42288.959886556535 
-60383.1476914123 
-66377.57349430611 
-67082.6032780124 
-67033.57572057375 
-66244.9391595212 
-60228.06395609942 
-42206.39791402509 
-16175.072602211021 
-33714.64042008673 
-58114.54490285968 
-71713.54305838366 
-75228.9443451336 
-74902.28782092557 
-74871.28050490198 
-75149.05225500562 
-71618.48644960987 
-58047.65529910282 
-33667.12552267993 
-42104.18218949379 
-64977.19705832191 
-76289.51307782074 
-78109.36572060465 
-77044.92889581058 
-77024.8856776161 
-78056.33783496072 
-76222.946201688 
-64917.248421591 
-42042.8735603245 
-42069.96658036735 
-64974.202141409965 
-76293.58385635106 
-78107.85716595156 
-77039.40838340286 
-77021.5106757325 
-78060.86426319668 
-76235.61270256687 
-64925.41607725639 
-42028.12806939861 
-33599.315404059365 
-58104.184946895126 
-71723.30291406001 
-75224.1910973413 
-74889.70846262155 
-74869.99337809757 
-75173.7735587692 
-71664.5446103557 
-58075.30386376827 
-33604.5434217644 
-15911.857922527393 
-42278.950432899815 
-60401.2959490738 
-66368.27424371871 
-67067.5616341567 
-67042.51918688345 
-66308.88949185792 
-60332.35472089262 
-42276.72803015457 
-16033.0832326623 
10098.771286284944 
-19541.28305076425 
-39130.4580364895 
-46255.62976293718 
-47516.31921860785 
-47490.28051778994 
-46179.7617894194 
-39062.5973863668 
-19523.795800887383 
9813.515576554282 
13170.179129860866 
-12316.05340129975 
-22728.424398648996 
-26346.725066949806 
-26352.051635994998 
-26342.074754049805 
-26319.89407973614 
-22687.799139634604 
-12357.15620496032 
13147.281785338271 
)
;

boundaryField
{
	bottom
	{
		type	fixedValue;
		value	uniform 0.0;
	}
	top
	{
		type	fixedValue;
		value	uniform 0.0;
	}
	left
	{
		type	zeroGradient;
	}
	right
	{
		type	zeroGradient;
	}
	frontAndBackPlanes
	{
		type	empty;
	}
}
