/*
 _____     _____     _____ _____ _____ _____    |  High-order Python FOAM
|  |  |___|  _  |_ _|   __|     |  _  |     |   |  Python Version: 3.10
|     | . |   __| | |   __|  |  |     | | | |   |  Code Version: 0.0
|__|__|___|__|  |_  |__|  |_____|__|__|_|_|_|   |  License: GPLv3
                |___|
*/
FoamFile
{
    version     2.0;
    format      ascii;
    class       volScalarField;
    location    "19.0";
    object     p;
}

dimensions      [0 0 0 1 0 0 0]; 

internalField   nonuniform List<scalar>
100
(
378812.48498854315 
67131.4734905488 
-100197.73524158097 
-127948.56178623244 
-122118.06253939532 
-121937.34983352244 
-126940.09744515002 
-98059.97008130881 
73805.98735648704 
370965.64748941566 
852319.2341353237 
433087.9321030141 
156965.03174845473 
56311.42606885535 
35390.7615173595 
35984.446820802645 
58123.598117665344 
159991.117194825 
433752.30703276454 
847975.5352659132 
964130.0305390499 
573848.4662888708 
273812.8273585079 
146045.18137750772 
108860.54812028527 
109247.99618802631 
147151.2694918723 
275054.5266663686 
574068.0616262512 
962673.4591648248 
1079979.3397089348 
651910.756156881 
359743.7122904973 
227231.77486310815 
184178.6031750334 
184344.52572509483 
227652.4231326083 
360168.2528379003 
651817.9607037463 
1080210.888448875 
1130395.1405830702 
696696.585892488 
404295.9313797915 
273068.90979813645 
228978.79464740207 
229009.79829951862 
273144.4317770108 
404336.1373765581 
696674.3157930895 
1130618.0781604967 
1131315.8565952487 
696861.5258548111 
404205.0887040772 
272901.1873114641 
228784.4473846921 
228765.5915807311 
272839.0585416383 
404038.41883099324 
696572.6768349906 
1131134.256829088 
1082768.719484334 
652568.4576012014 
359472.1460508926 
226760.37159704344 
183606.81588914967 
183587.47344931122 
226664.85741910822 
359165.4942146901 
651621.1826821383 
1081913.1372174702 
969428.9491472081 
574566.1512726934 
273252.4761167548 
145347.06456712942 
107991.06145982502 
108057.24734890857 
145369.22390839644 
273088.2869320225 
573232.9431873398 
966114.702129258 
858862.041822255 
433381.03363134793 
156505.68340471922 
55622.52121543516 
34699.055766421574 
34789.83730844544 
55985.70582984161 
156535.53653841055 
432840.35156948306 
852728.6905795854 
379310.24789750413 
68881.27609701472 
-100111.35618305433 
-127895.52448626321 
-122114.4314435219 
-122154.46331024593 
-127993.45597238181 
-100072.97285147657 
67323.6058429623 
378701.3689807487 
)
;

boundaryField
{
	bottom
	{
		type	pressureTraction;
	}
	top
	{
		type	pressureTraction;
	}
	left
	{
		type	fixedValueFromZeroGrad;
	}
	right
	{
		type	fixedValueFromZeroGrad;
	}
	frontAndBackPlanes
	{
		type	empty;
	}
}
