/*
 _____     _____     _____ _____ _____ _____    |  High-order Python FOAM
|  |  |___|  _  |_ _|   __|     |  _  |     |   |  Python Version: 3.10
|     | . |   __| | |   __|  |  |     | | | |   |  Code Version: 0.0
|__|__|___|__|  |_  |__|  |_____|__|__|_|_|_|   |  License: GPLv3
                |___|
*/
FoamFile
{
    version     2.0;
    format      ascii;
    class       volScalarField;
    location    "19.0";
    object     pCorr;
}

dimensions      [0 0 0 1 0 0 0]; 

internalField   nonuniform List<scalar>
100
(
4700.429662765714 
-6039.386364814902 
-3302.8767724205777 
2488.706478667317 
6262.333058467415 
6233.009529590442 
2440.6306334112264 
-3288.7908263987756 
-5639.416638154225 
4274.46694137465 
23315.697899097715 
8017.086557108428 
9867.8036265654 
18282.06528489891 
23902.32083230082 
23882.800640222093 
18257.473680998824 
9926.504143288037 
8009.166503116721 
23044.71641159692 
32198.170143921947 
18762.839967708893 
20233.33558301545 
28399.99968915211 
34200.529241841716 
34175.568538109146 
28346.717125028612 
20175.312197358515 
18679.536560904304 
32010.119074922353 
41682.83896300839 
27106.020100386944 
27558.675154395594 
34354.22603936051 
39399.002254185376 
39372.60522935867 
34286.03404772134 
27466.173234784525 
26985.811027829164 
41553.49645183204 
46787.7067084015 
31728.794358767896 
31273.85959162787 
37156.0086913878 
41626.507975978064 
41601.45087650049 
37088.82116542601 
31178.506835329343 
31614.0255350111 
46665.31714755463 
46806.50623332073 
31717.24603299156 
31258.106595010166 
37144.2267378139 
41620.03623102046 
41597.28976460458 
37083.65809158381 
31170.743165884825 
31608.961303007924 
46686.259498793515 
41744.08260058203 
27077.61405479765 
27511.09934786563 
34320.84989770402 
39382.00842997636 
39361.46590148856 
34267.232288733554 
27435.239239638802 
26972.343898898114 
41619.884361706674 
32342.916607180247 
18715.31781732326 
20151.99838052492 
28348.644379798803 
34181.36104548358 
34162.34119778146 
28307.893981999103 
20101.3077633042 
18628.14740277244 
32148.135094316636 
23555.56390509407 
7935.93005859774 
9786.472836555788 
18234.19761055772 
23883.825482444245 
23873.955287768018 
18210.667443808456 
9768.231333497035 
7912.19819815247 
23257.40613691331 
4672.54837431008 
-6013.93487157718 
-3334.5966846916754 
2481.6641644837473 
6283.6520486816025 
6264.2258944584355 
2438.0560440966087 
-3367.3373622769914 
-6081.291116909833 
4677.33135289594 
)
;

boundaryField
{
	bottom
	{
		type	fixedValue;
		value	uniform 0.0;
	}
	top
	{
		type	fixedValue;
		value	uniform 0.0;
	}
	left
	{
		type	zeroGradient;
	}
	right
	{
		type	zeroGradient;
	}
	frontAndBackPlanes
	{
		type	empty;
	}
}
