/*
 _____     _____     _____ _____ _____ _____    |  High-order Python FOAM
|  |  |___|  _  |_ _|   __|     |  _  |     |   |  Python Version: 3.10
|     | . |   __| | |   __|  |  |     | | | |   |  Code Version: 0.0
|__|__|___|__|  |_  |__|  |_____|__|__|_|_|_|   |  License: GPLv3
                |___|
*/
FoamFile
{
    version     2.0;
    format      ascii;
    class       volScalarField;
    location    "29.0";
    object     pCorr;
}

dimensions      [0 0 0 1 0 0 0]; 

internalField   nonuniform List<scalar>
100
(
1959.5029398370514 
-6703.309273893864 
-4513.484181484846 
-2158.4381336502483 
-1171.4774734123262 
-1179.2642916884363 
-2163.0958545913427 
-4464.107768153951 
-6222.908180453247 
1562.58899946352 
11294.592187061451 
-3093.839311990516 
-3673.4485480186904 
-632.5309964356699 
978.0860953123279 
985.1859127755129 
-589.7566021659296 
-3521.83385182246 
-2994.8993091961206 
11111.546585270658 
9037.373046161147 
-5429.266657384516 
-7577.35064988321 
-4987.062414964566 
-3289.8253884596097 
-3279.76224598055 
-4946.317818845711 
-7508.632726696462 
-5377.727677377548 
8962.053756883266 
8301.787444501124 
-7512.108801113196 
-10365.728077030672 
-8404.741363472653 
-6895.130777599723 
-6886.62715787551 
-8378.074552110289 
-10328.258730274545 
-7491.3654407225695 
8308.527385841267 
8083.174380036242 
-8255.922124373832 
-11617.493828153973 
-9977.096247373302 
-8618.996320614315 
-8611.500313320103 
-9955.410024143777 
-11588.684422221957 
-8232.034012404369 
8095.195080316201 
8113.360172052023 
-8258.11311843391 
-11623.40558492964 
-9979.788825148222 
-8618.285269408296 
-8610.280002060928 
-9956.400366949645 
-11593.868658227817 
-8237.03060531728 
8118.680539042273 
8393.636251480539 
-7517.587312698415 
-10387.156193366043 
-8411.994488700624 
-6892.152702102706 
-6882.235969824876 
-8384.212735391417 
-10352.959183571016 
-7506.487870306273 
8377.303042283223 
9223.121076938422 
-5449.744344159666 
-7621.733019457496 
-5000.781509057115 
-3283.2548551778877 
-3272.804788401262 
-4966.060013002431 
-7572.6372084730465 
-5441.905911513445 
9099.451533688856 
11570.59181569756 
-3149.3287857649757 
-3716.3528324179238 
-646.8395439466825 
983.8305714042822 
993.476406564688 
-615.0607328231513 
-3667.5924928915797 
-3115.4338922860175 
11286.79136308934 
1922.2176424305808 
-6653.901875763442 
-4516.3881552282255 
-2140.8189775756814 
-1141.0834090964188 
-1142.1385881179758 
-2145.447407254676 
-4519.924069002552 
-6712.8100446759845 
1933.648653153672 
)
;

boundaryField
{
	bottom
	{
		type	fixedValue;
		value	uniform 0.0;
	}
	top
	{
		type	fixedValue;
		value	uniform 0.0;
	}
	left
	{
		type	zeroGradient;
	}
	right
	{
		type	zeroGradient;
	}
	frontAndBackPlanes
	{
		type	empty;
	}
}
