/*
 _____     _____     _____ _____ _____ _____    |  High-order Python FOAM
|  |  |___|  _  |_ _|   __|     |  _  |     |   |  Python Version: 3.10
|     | . |   __| | |   __|  |  |     | | | |   |  Code Version: 0.0
|__|__|___|__|  |_  |__|  |_____|__|__|_|_|_|   |  License: GPLv3
                |___|
*/
FoamFile
{
    version     2.0;
    format      ascii;
    class       volVectorField;
    location    "29.0";
    object     U;
}

dimensions      [0 1 0 0 0 0 0]; 

internalField   nonuniform List<vector>
100
(
(0.017828421065037556 0.03133355616745233 0.0) 
(0.022188363091427528 0.04814978163703031 0.0) 
(0.028528289834401678 0.049582800057521796 0.0) 
(0.03695080536450109 0.050803755251805575 0.0) 
(0.045701588975797416 0.051417000130619145 0.0) 
(0.054503782559347964 0.05140829421904572 0.0) 
(0.0632662221923738 0.05075810640417802 0.0) 
(0.07173473312600037 0.04947836339436233 0.0) 
(0.07802727351817976 0.04774391559207313 0.0) 
(0.08298323533997444 0.03104758795260307 0.0) 
(0.013649843632333904 0.02078494695859274 0.0) 
(0.01560850427821221 0.03593918157838428 0.0) 
(0.024585357152131396 0.04129221217765492 0.0) 
(0.034715080235890476 0.04286144400625493 0.0) 
(0.044997219896755036 0.04342215454487853 0.0) 
(0.05521679786880082 0.04339922258500298 0.0) 
(0.0655131819064644 0.042781343098950424 0.0) 
(0.07565187406507752 0.04111999641975473 0.0) 
(0.08461828576352583 0.03567396621903619 0.0) 
(0.08638786362170417 0.020691432220591853 0.0) 
(0.010600414289402844 0.012066543933712483 0.0) 
(0.01184311572641172 0.02423277267827029 0.0) 
(0.020896493309987257 0.029522830155893413 0.0) 
(0.03240964514667643 0.031612274413863335 0.0) 
(0.044208782179303706 0.032245062096928984 0.0) 
(0.05596231189782705 0.03221695116001822 0.0) 
(0.06775164552554554 0.031525718477072584 0.0) 
(0.07923243822428959 0.029381157084937905 0.0) 
(0.08821972768447645 0.024097767409870234 0.0) 
(0.08946041211024976 0.01203409162540759 0.0) 
(0.01069284266223562 0.006739959635216239 0.0) 
(0.00980682396733954 0.013890139221256153 0.0) 
(0.01868950605529725 0.017667902008142437 0.0) 
(0.030763734285585338 0.01933180283034402 0.0) 
(0.04360706377676844 0.01988562960344012 0.0) 
(0.056506256874700324 0.0198625621467346 0.0) 
(0.06933177250771887 0.01926619827358006 0.0) 
(0.0813685429399614 0.017578694682813634 0.0) 
(0.09021471113188026 0.013814999138195214 0.0) 
(0.08925312859093873 0.006721464090727971 0.0) 
(0.0108646701404745 0.0021576812173423146 0.0) 
(0.009141659994403839 0.004556439156931084 0.0) 
(0.01769890473304926 0.005866882711411527 0.0) 
(0.02997038456262091 0.006495950623136952 0.0) 
(0.04329514863774494 0.00671039749154861 0.0) 
(0.05677273407521409 0.006695550621335882 0.0) 
(0.07008117958954266 0.006455605778246595 0.0) 
(0.08232645226594955 0.005813742244627098 0.0) 
(0.0908625534875359 0.004513707018622939 0.0) 
(0.08913932762856683 0.0021394225931219927 0.0) 
(0.010893283301927953 -0.0021224990769503696 0.0) 
(0.009145070538961846 -0.004546479969006091 0.0) 
(0.01770162545923182 -0.005874994662215674 0.0) 
(0.0299689164238859 -0.006512328989119189 0.0) 
(0.04328714475629633 -0.006739403803632939 0.0) 
(0.05675851478835893 -0.006746631500549584 0.0) 
(0.07006361044038399 -0.006532204527831347 0.0) 
(0.08231031192388476 -0.005902959829423186 0.0) 
(0.09085533934913571 -0.0045791401509992545 0.0) 
(0.0891106173965699 -0.002144640618588483 0.0) 
(0.010721959393141004 -0.006708741893977353 0.0) 
(0.009826789630618792 -0.01388824204484276 0.0) 
(0.018702532798893473 -0.017671389772293315 0.0) 
(0.030760375479957774 -0.01933487596722889 0.0) 
(0.04358379939686901 -0.019900218264732154 0.0) 
(0.05646329517036158 -0.019901264830729085 0.0) 
(0.069276233920653 -0.019338116716868293 0.0) 
(0.08131696777384177 -0.017675831241178868 0.0) 
(0.09017626836041018 -0.013902703508780912 0.0) 
(0.0892484008537018 -0.006735311741444344 0.0) 
(0.010719258758258568 -0.012060378002789229 0.0) 
(0.01191456966289744 -0.02424714664216744 0.0) 
(0.020923469653301083 -0.02950429960528524 0.0) 
(0.03240682195038049 -0.031588913099367025 0.0) 
(0.044173626180179566 -0.03223013177447617 0.0) 
(0.05589201357925923 -0.03222657286060717 0.0) 
(0.06765388231116432 -0.03158034511910721 0.0) 
(0.07912819076427137 -0.02949191949006182 0.0) 
(0.08815012529782722 -0.024222961915867716 0.0) 
(0.08930080049986645 -0.012071074970962629 0.0) 
(0.01403539133639361 -0.020839539134261995 0.0) 
(0.015686458841559683 -0.035919236645490446 0.0) 
(0.024618313716916595 -0.04124298734752438 0.0) 
(0.034709596390075974 -0.04279968439109548 0.0) 
(0.04495219604065592 -0.04336193623395745 0.0) 
(0.05512967051386531 -0.04336170818349631 0.0) 
(0.06538133761784863 -0.04279224686904018 0.0) 
(0.07548952895830123 -0.04122480618353958 0.0) 
(0.08442121505637357 -0.03589560828297444 0.0) 
(0.0863622498533575 -0.020787092094234842 0.0) 
(0.01784139998886427 -0.031420284535908574 0.0) 
(0.0222570412940138 -0.048090833494747 0.0) 
(0.02853837441815716 -0.049508896142962694 0.0) 
(0.03693635838263273 -0.05070396545040536 0.0) 
(0.04565739070410558 -0.051316611564414694 0.0) 
(0.05442477525395816 -0.0513188169356328 0.0) 
(0.0631509158648705 -0.050709875706697244 0.0) 
(0.07155211831421467 -0.04949779375967816 0.0) 
(0.07786888870213982 -0.048073462966744786 0.0) 
(0.08219388810509197 -0.03131169979497113 0.0) 
)
;

boundaryField
{
	bottom
	{
		type	solidTraction;
		value	nonuniform List<vector>
10
(
(0.02026725184458732 0.03737173108753404 0.0) 
(0.02536480390849696 0.049945211322583616 0.0) 
(0.030967518335947315 0.0540329225276263 0.0) 
(0.0381413979729745 0.054763175534909926 0.0) 
(0.04607026235771193 0.05532387301584003 0.0) 
(0.05413350442108049 0.05531760404549155 0.0) 
(0.06207950731266411 0.054728951347317506 0.0) 
(0.06928780098364555 0.05389234840848668 0.0) 
(0.07508730889748261 0.049585198182893066 0.0) 
(0.08067607925974521 0.03700398401883766 0.0) 
)
;
	}
	top
	{
		type	solidTraction;
		value	nonuniform List<vector>
10
(
(0.020219570197844632 -0.037449960239324065 0.0) 
(0.025365953419941474 -0.04990653806628497 0.0) 
(0.030974088587828633 -0.05394280020291957 0.0) 
(0.03812124497324339 -0.05465005140415025 0.0) 
(0.04602507963653426 -0.05520459010731978 0.0) 
(0.05405808044186908 -0.05520823768657437 0.0) 
(0.061963613572588394 -0.05465689461762302 0.0) 
(0.0691176606027229 -0.053937140407687455 0.0) 
(0.07470012656732936 -0.04986648341530327 0.0) 
(0.07976854454567704 -0.03733546324754958 0.0) 
)
;
	}
	left
	{
		type	fixedValue;
		value	uniform (0.0 0.0 0.0);
	}
	right
	{
		type	fixedValue;
		value	uniform (0.1 0.0 0.0);
	}
	frontAndBackPlanes
	{
		type	empty;
	}
}
