/*
 _____     _____     _____ _____ _____ _____    |  High-order Python FOAM
|  |  |___|  _  |_ _|   __|     |  _  |     |   |  Python Version: 3.10
|     | . |   __| | |   __|  |  |     | | | |   |  Code Version: 0.0
|__|__|___|__|  |_  |__|  |_____|__|__|_|_|_|   |  License: GPLv3
                |___|
*/
FoamFile
{
    version     2.0;
    format      ascii;
    class       volScalarField;
    location    "74.0";
    object     p;
}

dimensions      [0 0 0 1 0 0 0]; 

internalField   nonuniform List<scalar>
100
(
396568.37631861726 
-141796.80327510057 
-200744.68751117706 
-151725.22416391614 
-131419.1088122538 
-131687.36953959172 
-151983.80548615553 
-198477.4329479304 
-114567.36295575919 
373863.4102456003 
1319855.133317825 
386822.1562160553 
154596.77692637267 
174874.8272719134 
198797.0329903879 
199130.16015340007 
176724.68506485308 
161825.68015558983 
391064.0217170271 
1308445.3774998013 
1434599.084705722 
522903.99110302306 
215866.44060065417 
207107.83966133735 
224341.45666481217 
224588.5171179209 
208355.4024104731 
218021.22970841688 
523756.142943223 
1428082.7776101918 
1596902.587261796 
586929.92045024 
265554.0334053894 
237526.43112831152 
247506.1273624337 
247563.6535966658 
237778.1788459652 
265762.16186951817 
585797.5373126839 
1594862.0286529332 
1677045.868493899 
639315.3343233173 
300938.2149224005 
266368.4607816485 
272309.54302329326 
272252.85336388665 
266233.83644963737 
300564.0030057328 
638347.0035199482 
1675231.9809750998 
1679014.8457798494 
639252.0175030867 
300526.33175212186 
266021.2902970038 
272057.6680559063 
271991.0525391382 
265893.26754717267 
300121.13141366 
638107.134382509 
1676866.0845378884 
1602943.3083958928 
586775.1619047939 
264129.9711939242 
236557.37581115137 
246790.0656074589 
246806.00170345407 
236644.6866362188 
264037.6706149114 
585176.6253799186 
1599738.298897552 
1446651.8532225285 
521966.93270837335 
213016.29582671358 
205455.47425551232 
223213.4530635339 
223360.90823069654 
206094.86703303596 
214191.10119492514 
520685.0018455287 
1437526.0555216793 
1337592.786172965 
383997.0259174227 
151829.75467326716 
173054.02382678477 
197613.96252549672 
197823.9987491988 
174159.1786416357 
153726.13958995638 
385334.83234131266 
1319493.4718515724 
394756.70522536105 
-138313.6744172709 
-200969.42168086703 
-151156.5984699701 
-130641.17571722533 
-130777.5198295513 
-151494.25937279148 
-200976.3819014116 
-141911.98298942097 
395458.9273622538 
)
;

boundaryField
{
	bottom
	{
		type	pressureTraction;
	}
	top
	{
		type	pressureTraction;
	}
	left
	{
		type	fixedValueFromZeroGrad;
	}
	right
	{
		type	fixedValueFromZeroGrad;
	}
	frontAndBackPlanes
	{
		type	empty;
	}
}
