/*
 _____     _____     _____ _____ _____ _____    |  High-order Python FOAM
|  |  |___|  _  |_ _|   __|     |  _  |     |   |  Python Version: 3.10
|     | . |   __| | |   __|  |  |     | | | |   |  Code Version: 0.0
|__|__|___|__|  |_  |__|  |_____|__|__|_|_|_|   |  License: GPLv3
                |___|
*/
FoamFile
{
    version     2.0;
    format      ascii;
    class       volScalarField;
    location    "80.0";
    object     pCorr;
}

dimensions      [0 0 0 1 0 0 0]; 

internalField   nonuniform List<scalar>
100
(
-773.7907139530206 
-991.6445891812057 
-258.47137621705775 
-98.16781563173711 
-384.0626321094762 
-384.09628853095387 
-116.08903907127893 
-282.4122829799183 
-793.0469039636826 
-881.0447328679161 
3246.263167134141 
-653.8808749873715 
63.51123455205241 
615.8395975562286 
546.3203281319156 
543.3656378672898 
607.0429724614007 
84.49637218914202 
-620.749158851715 
3194.991039452315 
2981.25837276083 
-1028.8004981213355 
-536.6867848627182 
217.19653990263598 
242.40405927859217 
240.76712214653526 
215.28838229492453 
-533.2928774901485 
-1024.7709320311574 
2916.606666141388 
3241.4846478403488 
-1370.1745599313224 
-821.7291314673123 
12.991453877503524 
97.5398138075825 
97.03424136515453 
12.304277882718354 
-822.5112054218258 
-1379.3869971788054 
3200.907724465423 
3422.1915373368925 
-1361.6017289800004 
-833.716387701541 
47.51049790755127 
154.93914569213666 
154.76244301494432 
47.50538038990458 
-834.2357540591701 
-1368.9189152998242 
3387.813853110918 
3430.4627262305876 
-1364.5539861399234 
-836.26822851206 
46.724229194917115 
154.7504485757611 
154.48400373893207 
47.17376458519803 
-835.5237014289087 
-1370.391902513233 
3400.6485247044493 
3267.949869971791 
-1383.9861883774977 
-831.7730123975548 
11.137149452230053 
96.75264526863204 
96.42106774761345 
12.229127925242326 
-826.9586812552611 
-1383.1261270101995 
3236.8456729970217 
3036.125816852289 
-1052.9317537233253 
-557.9709509976282 
211.05786521080665 
238.2481822222521 
237.46128281221823 
214.48004657862694 
-540.7593497583842 
-1040.4841309287797 
2979.9476195973784 
3357.0253728275698 
-691.258780016336 
40.773471505395655 
605.4562492231632 
536.9324918047924 
535.8030532433644 
609.1436709520841 
62.63209145965502 
-659.6725686463305 
3238.61177994376 
-808.9749230585024 
-975.5448902349999 
-259.1385823392981 
-89.9096727591259 
-380.1093423742354 
-381.7164030957002 
-92.29337776673636 
-256.6796537531002 
-988.7692386300769 
-782.1525443312562 
)
;

boundaryField
{
	bottom
	{
		type	fixedValue;
		value	uniform 0.0;
	}
	top
	{
		type	fixedValue;
		value	uniform 0.0;
	}
	left
	{
		type	zeroGradient;
	}
	right
	{
		type	zeroGradient;
	}
	frontAndBackPlanes
	{
		type	empty;
	}
}
