/*
 _____     _____     _____ _____ _____ _____    |  High-order Python FOAM
|  |  |___|  _  |_ _|   __|     |  _  |     |   |  Python Version: 3.10
|     | . |   __| | |   __|  |  |     | | | |   |  Code Version: 0.0
|__|__|___|__|  |_  |__|  |_____|__|__|_|_|_|   |  License: GPLv3
                |___|
*/
FoamFile
{
    version     2.0;
    format      ascii;
    class       volVectorField;
    location    "80.0";
    object     U;
}

dimensions      [0 1 0 0 0 0 0]; 

internalField   nonuniform List<vector>
100
(
(0.015376586532133257 0.036355472713475695 0.0) 
(0.020152804581310513 0.04636243823300119 0.0) 
(0.028628652724979158 0.04693890887732105 0.0) 
(0.037403126892433865 0.0494579054005276 0.0) 
(0.04592349900290005 0.05093977216888217 0.0) 
(0.054393259899082995 0.050925084083349365 0.0) 
(0.06294469618439409 0.049409768361073525 0.0) 
(0.07181845201342242 0.04692275584381446 0.0) 
(0.08006102920674597 0.04594500090922389 0.0) 
(0.08568233229755334 0.03571053226137208 0.0) 
(0.01602213703901305 0.024112961709823723 0.0) 
(0.015005828233207633 0.03606634083408187 0.0) 
(0.024763952881146453 0.03991624154023877 0.0) 
(0.035122673905619475 0.0417584432653061 0.0) 
(0.04517976893235982 0.04279022974023517 0.0) 
(0.05513562878789034 0.04276590387905013 0.0) 
(0.06521392517587601 0.04167997530927599 0.0) 
(0.0755777843876466 0.039735659587270405 0.0) 
(0.08533956164158257 0.035683736815071906 0.0) 
(0.08410667116883554 0.023968083598904153 0.0) 
(0.011654188957099583 0.013100311136084326 0.0) 
(0.011135367478698038 0.024394249044761365 0.0) 
(0.021242050120447283 0.028538250252783122 0.0) 
(0.033036003946684066 0.03039420479366408 0.0) 
(0.04447950248005895 0.031146161599311762 0.0) 
(0.05577113617527532 0.031115875475763773 0.0) 
(0.06720854885743048 0.0302973079386371 0.0) 
(0.0789688206763257 0.02835707387647109 0.0) 
(0.08897174131480334 0.02419785245181025 0.0) 
(0.08844061193384305 0.013043941303202586 0.0) 
(0.011662267111694696 0.007290750740528278 0.0) 
(0.008510773261040895 0.01388674380961006 0.0) 
(0.0188832000239179 0.017118069997473985 0.0) 
(0.03145913960437992 0.018514224844739045 0.0) 
(0.04392776370770754 0.019036262514707948 0.0) 
(0.056246538590848556 0.01901065815128672 0.0) 
(0.06869484038167738 0.018437314383990665 0.0) 
(0.08121934774814041 0.017005084448315562 0.0) 
(0.09153316598146961 0.013783706344223568 0.0) 
(0.08829728934632965 0.0072712917651985 0.0) 
(0.011794209919200353 0.002328348924705178 0.0) 
(0.0076339349475794595 0.0045660622920752755 0.0) 
(0.01775028679566417 0.005693623372488092 0.0) 
(0.030652334681828455 0.006226809046034086 0.0) 
(0.043625247132612524 0.006414253896013629 0.0) 
(0.056489743961845064 0.00639892869303177 0.0) 
(0.06943987836629777 0.00618404416640075 0.0) 
(0.08230184601267469 0.005634703286540979 0.0) 
(0.09238050565794874 0.004517522157351251 0.0) 
(0.08822220200778322 0.0023090646889909468 0.0) 
(0.011827929274865057 -0.0022703932472347152 0.0) 
(0.007634367297462705 -0.004551670145534375 0.0) 
(0.017752607635407813 -0.005704948952175267 0.0) 
(0.030651000765111795 -0.006245633841275401 0.0) 
(0.04361518414588416 -0.006442675348379628 0.0) 
(0.056470274337049486 -0.006447269880357305 0.0) 
(0.0694144804410642 -0.006258207876200144 0.0) 
(0.0822781617021228 -0.00572338475404468 0.0) 
(0.0923705534556189 -0.0045780477366320375 0.0) 
(0.08818508691571952 -0.002293881793162071 0.0) 
(0.011701834200663534 -0.007236213070038702 0.0) 
(0.008522442581203452 -0.013881091605160024 0.0) 
(0.018897365381517903 -0.017123931885171768 0.0) 
(0.031456471206616085 -0.018515605703866914 0.0) 
(0.0438977580645823 -0.019045457855519067 0.0) 
(0.05618712187551001 -0.01904180652421537 0.0) 
(0.06861300202781653 -0.01850429854983898 0.0) 
(0.08114159258534405 -0.017105666908951114 0.0) 
(0.09148221569559326 -0.013877695883737754 0.0) 
(0.088275530911732 -0.007270629625556795 0.0) 
(0.011793591983501802 -0.013078546908769502 0.0) 
(0.011208019175432722 -0.024410385122064098 0.0) 
(0.021272876978248933 -0.02851166995447751 0.0) 
(0.03303287374386289 -0.03035749264932763 0.0) 
(0.04443117417423094 -0.031115276903025665 0.0) 
(0.055671270834512315 -0.031107254349301165 0.0) 
(0.0670632655305652 -0.03033374614496694 0.0) 
(0.07880464000774287 -0.028471977679105004 0.0) 
(0.08887028872286162 -0.02434978317798628 0.0) 
(0.08824579975987 -0.013097659267207106 0.0) 
(0.016538258525754048 -0.02422573541852063 0.0) 
(0.015076735659845906 -0.0360304979563332 0.0) 
(0.02479907819599029 -0.03983626349262627 0.0) 
(0.03510931883271924 -0.041662423337366854 0.0) 
(0.045109948850666076 -0.04269796234858756 0.0) 
(0.05500402479430344 -0.042695390821846445 0.0) 
(0.06501108719767855 -0.0416458722839142 0.0) 
(0.07533084397453182 -0.03979664295519445 0.0) 
(0.08504084397130161 -0.035976212751559516 0.0) 
(0.08400458497029473 -0.024105004366385425 0.0) 
(0.015356927728313161 -0.03651244990252533 0.0) 
(0.0202283268920523 -0.04627430232015473 0.0) 
(0.028624021406060365 -0.04682258043875726 0.0) 
(0.03737263830812358 -0.04930834323132382 0.0) 
(0.045847331161926755 -0.05080007678667023 0.0) 
(0.0542563641179744 -0.050799071003931086 0.0) 
(0.06273388764634101 -0.049306251855076914 0.0) 
(0.07148051375505898 -0.046793611739640646 0.0) 
(0.07992878395704359 -0.04622961348838267 0.0) 
(0.084670027840245 -0.036295393119459535 0.0) 
)
;

boundaryField
{
	bottom
	{
		type	solidTraction;
		value	nonuniform List<vector>
10
(
(0.016502742797947657 0.04224756665297423 0.0) 
(0.02282150991860569 0.04916181763418969 0.0) 
(0.030581423618897763 0.05117719318955482 0.0) 
(0.03849899898564961 0.05312596017236367 0.0) 
(0.04629064192156312 0.05470103583952059 0.0) 
(0.054034914911472366 0.05469110770991559 0.0) 
(0.061873752355795314 0.053113343622033335 0.0) 
(0.0698315778416856 0.05112829294901152 0.0) 
(0.07772347908564907 0.04873312454122829 0.0) 
(0.08468395005286562 0.04148714369992716 0.0) 
)
;
	}
	top
	{
		type	solidTraction;
		value	nonuniform List<vector>
10
(
(0.016398594277766677 -0.04239582547965115 0.0) 
(0.022800885606325358 -0.04911187132068102 0.0) 
(0.030571650639631565 -0.0510400088484058 0.0) 
(0.03845542904110052 -0.05295991989044407 0.0) 
(0.04620723097682075 -0.0545372000919439 0.0) 
(0.05389170727937767 -0.054537906787176356 0.0) 
(0.06164324927938256 -0.052958545290062546 0.0) 
(0.06953609569968436 -0.05101753471582059 0.0) 
(0.07727277378112442 -0.04902317213829902 0.0) 
(0.08356183856191904 -0.04216376651342447 0.0) 
)
;
	}
	left
	{
		type	fixedValue;
		value	uniform (0.0 0.0 0.0);
	}
	right
	{
		type	fixedValue;
		value	uniform (0.1 0.0 0.0);
	}
	frontAndBackPlanes
	{
		type	empty;
	}
}
