/*
 _____     _____     _____ _____ _____ _____    |  High-order Python FOAM
|  |  |___|  _  |_ _|   __|     |  _  |     |   |  Python Version: 3.10
|     | . |   __| | |   __|  |  |     | | | |   |  Code Version: 0.0
|__|__|___|__|  |_  |__|  |_____|__|__|_|_|_|   |  License: GPLv3
                |___|
*/
FoamFile
{
    version     2.0;
    format      ascii;
    class       volScalarField;
    location    "44.0";
    object     p;
}

dimensions      [0 0 0 1 0 0 0]; 

internalField   nonuniform List<scalar>
100
(
419217.3623181786 
-73052.61433893224 
-179233.6662942081 
-144699.61640007305 
-113653.9593791752 
-113775.60854807888 
-144187.4383018613 
-176425.41376198686 
-55156.12910202344 
402209.20212773036 
1157211.3664679327 
417040.35030229634 
152246.0602327509 
138782.9940677603 
162091.61887959004 
162621.33741575832 
140974.07405566156 
158104.62843727047 
419594.45400226477 
1148365.5983739942 
1276058.8165500336 
565448.3417047136 
243251.6474815182 
194420.96121640515 
204605.95763193266 
204972.33644937733 
195796.1274054429 
245232.65333566692 
566089.6995701828 
1272068.9909821711 
1424490.954661206 
642463.6715939647 
309191.0361098395 
239544.41747018983 
238769.9524199557 
238896.241404285 
239939.93052228968 
309601.31392065954 
641906.4040861098 
1423893.0012231076 
1495092.755779579 
694073.8038305147 
346952.37364472286 
269635.6540468916 
263477.51713164203 
263465.591424222 
269616.2493599068 
346809.2993953827 
693640.2574637278 
1494578.6782329537 
1496652.7149861204 
694129.6778228398 
346669.9948230894 
269348.6629276351 
263244.11647908087 
263207.0958376001 
269269.97329209 
346396.57530331763 
693437.3735142477 
1495670.6817127368 
1429242.760580638 
642810.9224975776 
308258.54595713195 
238739.25646205177 
238108.28124551318 
238126.83261263563 
238775.55512507912 
308056.14879759424 
641407.51221404 
1427267.4405037244 
1285431.1420484963 
565442.5551690058 
241404.46063574194 
193140.35612921053 
203643.40426900177 
203781.83602880404 
193543.4990362113 
241874.72829420766 
563858.0440643537 
1278802.787409955 
1170075.6682705048 
415781.2648666142 
150510.773975637 
137475.47756619425 
161252.7620916794 
161454.04247656104 
138296.6139606929 
151432.225974312 
415921.92769286333 
1157178.6140041987 
418742.7253725768 
-70289.30538532764 
-179378.02393645316 
-144404.84589964006 
-113098.66178315284 
-113216.04703370463 
-144716.87125440067 
-179488.0017470605 
-73191.735252468 
418531.3434246832 
)
;

boundaryField
{
	bottom
	{
		type	pressureTraction;
	}
	top
	{
		type	pressureTraction;
	}
	left
	{
		type	fixedValueFromZeroGrad;
	}
	right
	{
		type	fixedValueFromZeroGrad;
	}
	frontAndBackPlanes
	{
		type	empty;
	}
}
