/*
 _____     _____     _____ _____ _____ _____    |  High-order Python FOAM
|  |  |___|  _  |_ _|   __|     |  _  |     |   |  Python Version: 3.10
|     | . |   __| | |   __|  |  |     | | | |   |  Code Version: 0.0
|__|__|___|__|  |_  |__|  |_____|__|__|_|_|_|   |  License: GPLv3
                |___|
*/
FoamFile
{
    version     2.0;
    format      ascii;
    class       volScalarField;
    location    "42.0";
    object     pCorr;
}

dimensions      [0 0 0 1 0 0 0]; 

internalField   nonuniform List<scalar>
100
(
-299.0658069129546 
-4171.984761916074 
-1620.3760712533526 
-318.10970647072674 
-350.5930454541133 
-360.5105454988224 
-345.17831190033473 
-1618.2304168223516 
-3755.5561828421287 
-586.5047148421082 
8353.265555421933 
-1201.7398138934172 
220.35642299827373 
2513.0852200611894 
3103.1088086636014 
3094.846034362702 
2507.2668166245053 
301.3871836325749 
-1124.6974203995803 
8221.464192190886 
8688.729024904227 
-1122.3514631982084 
-687.4364778225444 
1708.085318265776 
2608.087625969055 
2602.0774421485644 
1703.2294590419178 
-677.0573422167236 
-1113.1531868609152 
8588.108917529285 
9740.187809076491 
-1204.9215030382088 
-1172.4298844075597 
1084.2412535051092 
2088.8523209137143 
2083.4061167230548 
1072.1037097566254 
-1188.5887380513086 
-1236.3392739408819 
9687.730578068034 
10418.035693553848 
-944.5711196410921 
-1186.0128076637595 
1003.6588803777637 
2020.9095515206639 
2016.1430333658934 
990.9265857050094 
-1206.8400283123449 
-976.6423662583592 
10367.9286520499 
10435.993478069691 
-950.8918231621851 
-1193.6779285110615 
999.1548804060712 
2019.3408256842756 
2016.1890730684947 
991.4817502340956 
-1208.1883996672661 
-978.4846744739334 
10389.658824194561 
9796.584826282411 
-1226.6255940735693 
-1199.2728231645708 
1071.499382654582 
2084.82567435374 
2084.8559334304045 
1073.015863570918 
-1198.7561330661495 
-1243.1015303528525 
9748.299338681827 
8809.725990597028 
-1162.6681597365211 
-738.674801330711 
1684.7189349853377 
2601.116518921938 
2604.038770157425 
1700.3489351082424 
-708.1235064299644 
-1156.8953330970774 
8701.57676909863 
8562.002538342878 
-1270.8220959225926 
168.88371148429667 
2485.9553192497165 
3091.253203668564 
3096.0135393550254 
2507.370078434967 
215.58969685816706 
-1224.5666588784832 
8337.678079427267 
-348.325382577946 
-4143.702017741114 
-1629.9709348051365 
-311.24914732806684 
-337.17603722833593 
-335.4938262645537 
-307.56995366189295 
-1622.7387902052296 
-4175.558925718457 
-318.4865162211397 
)
;

boundaryField
{
	bottom
	{
		type	fixedValue;
		value	uniform 0.0;
	}
	top
	{
		type	fixedValue;
		value	uniform 0.0;
	}
	left
	{
		type	zeroGradient;
	}
	right
	{
		type	zeroGradient;
	}
	frontAndBackPlanes
	{
		type	empty;
	}
}
