/*--------------------------------*- C++ -*----------------------------------*\
| =========                 |                                                 |
| \\      /  F ield         | foam-extend: Open Source CFD                    |
|  \\    /   O peration     | Version:     4.1                                |
|   \\  /    A nd           | Web:         http://www.foam-extend.org         |
|    \\/     M anipulation  |                                                 |
\*---------------------------------------------------------------------------*/
FoamFile
{
    version     2.0;
    format      ascii;
    class       regIOobject;
    location    "1/uniform";
    object      profilingInfo;
}
// * * * * * * * * * * * * * * * * * * * * * * * * * * * * * * * * * * * * * //

profilingInfo
(

    {
        id              7;
        parentId        6;
        description     "Foam::Time::writeObject - outputTime";
        calls           1;
        totalTime       0.05139;
        childTime       0;
        onStack         1;
    }

    {
        id              6;
        parentId        1;
        description     "Foam::Time::writeObject";
        calls           1;
        totalTime       0.051429;
        childTime       0.05139;
        onStack         1;
    }

    {
        id              1;
        description     "application::main";
        calls           1;
        totalTime       580.024;
        childTime       423.838;
        onStack         1;
    }

    {
        id              2;
        parentId        1;
        description     "functionObjectList::read";
        calls           1;
        totalTime       7e-06;
        childTime       0;
        onStack         0;
    }

    {
        id              3;
        parentId        1;
        description     "fvMatrix::solve_D";
        calls           45680;
        totalTime       423.786;
        childTime       416.865;
        onStack         0;
    }

    {
        id              4;
        parentId        3;
        description     "lduMatrix::solver_Dx";
        calls           45680;
        totalTime       76.5509;
        childTime       0;
        onStack         0;
    }

    {
        id              5;
        parentId        3;
        description     "lduMatrix::solver_Dy";
        calls           45680;
        totalTime       340.314;
        childTime       0;
        onStack         0;
    }
);


// ************************************************************************* //
