/*
 _____     _____     _____ _____ _____ _____    |  High-order Python FOAM
|  |  |___|  _  |_ _|   __|     |  _  |     |   |  Python Version: 3.10
|     | . |   __| | |   __|  |  |     | | | |   |  Code Version: 0.0
|__|__|___|__|  |_  |__|  |_____|__|__|_|_|_|   |  License: GPLv3
                |___|
*/
FoamFile
{
    version     2.0;
    format      ascii;
    class       volScalarField;
    location    "72.0";
    object     p;
}

dimensions      [0 0 0 1 0 0 0]; 

internalField   nonuniform List<scalar>
100
(
398211.8650467217 
-139248.70903676678 
-200082.13385724544 
-151476.9527278035 
-130500.6810764686 
-130766.48924008428 
-151693.9219451142 
-197766.16672769774 
-112479.78817922386 
375762.77966131165 
1312289.3081395477 
388311.3913209647 
154420.2010533284 
173366.67330491115 
197444.86656220234 
197786.11342227642 
175237.32820252454 
161596.6634939072 
392474.416492263 
1300998.1408756126 
1427518.1264072298 
525208.9204802541 
217116.6482534153 
206586.10644999612 
223719.5344297444 
223971.16763278536 
207839.22088222436 
219264.2005756894 
526051.7922117118 
1421143.7317420805 
1589213.7889862251 
590003.0993170779 
267512.98221435305 
237536.86432991998 
247253.48368022102 
247312.7111160451 
237791.61023384015 
267725.3783993849 
588894.4615099245 
1587260.319636796 
1668936.7354796003 
642374.3242504008 
302950.8642836323 
266327.8923064947 
271941.851814212 
271885.8468953183 
266194.3592051464 
302580.4053632931 
641425.726609103 
1667197.693939969 
1670886.2854554495 
642317.4794385348 
302544.9538889541 
265982.83662671485 
271690.56794120115 
271624.5883480864 
265854.2178723309 
302139.8952694019 
641188.5083692371 
1668802.8016606243 
1595192.5442628623 
589878.0867768654 
266112.2784148873 
236573.11006172074 
246539.58421592743 
246556.00021911183 
236657.58781412232 
266010.1393240346 
588280.6829015092 
1592055.755601969 
1439442.5144669286 
524324.6750264871 
214315.507248879 
204949.05110783302 
222601.04382725238 
222749.73335007243 
205579.53666980096 
215451.828259146 
523017.66824631416 
1430443.9971502426 
1329775.8403951407 
385569.8441504544 
151704.89776246072 
171570.27944846623 
196282.66660722764 
196494.68308067284 
172665.7522539021 
153551.56674035822 
386838.2931967799 
1311944.3246459218 
396477.2383630027 
-135802.44892150044 
-200304.98805942875 
-150925.75044137158 
-129731.75601930905 
-129865.126417334 
-151259.03525937584 
-200317.3847832464 
-139369.2984862544 
397122.1771801358 
)
;

boundaryField
{
	bottom
	{
		type	pressureTraction;
	}
	top
	{
		type	pressureTraction;
	}
	left
	{
		type	fixedValueFromZeroGrad;
	}
	right
	{
		type	fixedValueFromZeroGrad;
	}
	frontAndBackPlanes
	{
		type	empty;
	}
}
