/*
 _____     _____     _____ _____ _____ _____    |  High-order Python FOAM
|  |  |___|  _  |_ _|   __|     |  _  |     |   |  Python Version: 3.10
|     | . |   __| | |   __|  |  |     | | | |   |  Code Version: 0.0
|__|__|___|__|  |_  |__|  |_____|__|__|_|_|_|   |  License: GPLv3
                |___|
*/
FoamFile
{
    version     2.0;
    format      ascii;
    class       volVectorField;
    location    "72.0";
    object     U;
}

dimensions      [0 1 0 0 0 0 0]; 

internalField   nonuniform List<vector>
100
(
(0.015571758284018584 0.036046241159297124 0.0) 
(0.020234319847637267 0.04645280435752711 0.0) 
(0.028620340629598107 0.04699946704924822 0.0) 
(0.037402788419885154 0.049477340139214086 0.0) 
(0.04592793561773309 0.05097003713744099 0.0) 
(0.05438163580968853 0.050956690894919665 0.0) 
(0.06293564613989731 0.049432077349315415 0.0) 
(0.07181006654587165 0.0469768786948475 0.0) 
(0.07998007314386747 0.0460311117154654 0.0) 
(0.08547106314276698 0.03543181448847804 0.0) 
(0.015845906672557142 0.023819809665791152 0.0) 
(0.015071465318428337 0.036044584282328575 0.0) 
(0.02474993600837906 0.03995645903395981 0.0) 
(0.03509762571022523 0.041784283742379746 0.0) 
(0.04517055875198482 0.04280801336968271 0.0) 
(0.05513784098743207 0.0427843089576955 0.0) 
(0.0652311195842601 0.04170655853083794 0.0) 
(0.07558403632873867 0.03977630448601614 0.0) 
(0.08526470671954181 0.035671144291920635 0.0) 
(0.08427443881126384 0.023679550918676875 0.0) 
(0.011566736842599228 0.013016844629773181 0.0) 
(0.011196651494210284 0.024368386809675402 0.0) 
(0.02121188561126757 0.02858137818261919 0.0) 
(0.03299194164816415 0.030445280124972378 0.0) 
(0.04446346354321488 0.031193032413516522 0.0) 
(0.055781740286371194 0.03116304866639124 0.0) 
(0.06724693329219483 0.03034927632493643 0.0) 
(0.07899311291926166 0.028403221414496135 0.0) 
(0.08890742927399613 0.02417693969507136 0.0) 
(0.08852478832212399 0.012962935905864528 0.0) 
(0.011589709774015177 0.007240719335928677 0.0) 
(0.008615454973404699 0.013878633533395008 0.0) 
(0.018854052629312307 0.017140165805848522 0.0) 
(0.03140473364304363 0.01854813436132398 0.0) 
(0.04390700570597588 0.019070392593728648 0.0) 
(0.05626326527904514 0.019044979845653662 0.0) 
(0.06874540989161816 0.018472044788166154 0.0) 
(0.0812457569183507 0.01702892603135625 0.0) 
(0.09142744476157279 0.013777715449221458 0.0) 
(0.08836801672449902 0.007221107982601363 0.0) 
(0.011723501266817458 0.002312862254619106 0.0) 
(0.0077523702024670715 0.004561548401992949 0.0) 
(0.017726526612056558 0.005699507612876844 0.0) 
(0.03059487083377519 0.006236610256549361 0.0) 
(0.04360267715380952 0.006424789843197371 0.0) 
(0.05650930302218695 0.006409506769551941 0.0) 
(0.06949483386904884 0.0061940072020310105 0.0) 
(0.08232424861998722 0.005640936694918433 0.0) 
(0.0922620541940799 0.004513284579609188 0.0) 
(0.0882915445612075 0.0022933796758892416 0.0) 
(0.0117567947251228 -0.0022572632078065704 0.0) 
(0.007753086004795211 -0.004547614448947488 0.0) 
(0.017728836516132097 -0.0057105759380191995 0.0) 
(0.030593487272627153 -0.006255208474355641 0.0) 
(0.0435927670326984 -0.006453133612011748 0.0) 
(0.056490209413072666 -0.006457892090750923 0.0) 
(0.06946998363567605 -0.006268309789430642 0.0) 
(0.08230107381909638 -0.005729851682354192 0.0) 
(0.0922522016956304 -0.004574711456198577 0.0) 
(0.08825522411626847 -0.002280805041982779 0.0) 
(0.011628431459010966 -0.007188614948156597 0.0) 
(0.008627962060743104 -0.0138733753682977 0.0) 
(0.01886793950467014 -0.01714582401913749 0.0) 
(0.03140191160294321 -0.018549647326967972 0.0) 
(0.04387750855540958 -0.019079859066971502 0.0) 
(0.05620499930324302 -0.019076491652847083 0.0) 
(0.06866538701546013 -0.018539367707891944 0.0) 
(0.08116983771844066 -0.017129458726177976 0.0) 
(0.09137716158574825 -0.013871646303561781 0.0) 
(0.08834809664208028 -0.007222384660100566 0.0) 
(0.011704432883117708 -0.012997144479793749 0.0) 
(0.011269325911871433 -0.024384390764542307 0.0) 
(0.021242220529522075 -0.028555740461968883 0.0) 
(0.03298870570335854 -0.030409759946779226 0.0) 
(0.04441614245118135 -0.031163299419617107 0.0) 
(0.055683918699249324 -0.03115550122413937 0.0) 
(0.06710486361300459 -0.030386975143326427 0.0) 
(0.07883331374189986 -0.02851811155388096 0.0) 
(0.08880825568183666 -0.02432692254466362 0.0) 
(0.08833286253462058 -0.01301526280236716 0.0) 
(0.016350479268723017 -0.023926736766328584 0.0) 
(0.015143607039499291 -0.036010721992201546 0.0) 
(0.024784679469865227 -0.039879525160731684 0.0) 
(0.03508467822081025 -0.04169152194535413 0.0) 
(0.04510252820843925 -0.04271858096458019 0.0) 
(0.055009374422762464 -0.04271604471903397 0.0) 
(0.0650333919474154 -0.041675266215292175 0.0) 
(0.07534336706367623 -0.039841028137568874 0.0) 
(0.08497389577384107 -0.03595835193783961 0.0) 
(0.08417954142457404 -0.02381311166130456 0.0) 
(0.015555951255617418 -0.03619697468412142 0.0) 
(0.02030880132279082 -0.04636790709956974 0.0) 
(0.02861680979793022 -0.04688694008925633 0.0) 
(0.03737343238211149 -0.04933245402741151 0.0) 
(0.04585394698918391 -0.050834347152731295 0.0) 
(0.0542481644133476 -0.0508333153471819 0.0) 
(0.0627315867499757 -0.04933021793938496 0.0) 
(0.07148675112047832 -0.04685854928435396 0.0) 
(0.0798457686919663 -0.04632419466279509 0.0) 
(0.0844731023995594 -0.035989723143913396 0.0) 
)
;

boundaryField
{
	bottom
	{
		type	solidTraction;
		value	nonuniform List<vector>
10
(
(0.016776077097016565 0.04196269903757828 0.0) 
(0.022953530864653553 0.04917711273862729 0.0) 
(0.030596889238545547 0.0512508264634932 0.0) 
(0.03850768316773017 0.05315608192430588 0.0) 
(0.04629659267607306 0.0547335485071725 0.0) 
(0.05402110149837047 0.054725046769431414 0.0) 
(0.06185346434879296 0.05314439254759216 0.0) 
(0.0698017146676926 0.05119454991634136 0.0) 
(0.07758497717705132 0.04875065149040797 0.0) 
(0.08439577306956828 0.041234257047188465 0.0) 
)
;
	}
	top
	{
		type	solidTraction;
		value	nonuniform List<vector>
10
(
(0.01667784437906686 -0.04210490354118071 0.0) 
(0.022934610259232466 -0.04912861220757072 0.0) 
(0.030588206578192466 -0.05111796296712055 0.0) 
(0.038465820883246 -0.052995064758221154 0.0) 
(0.046215624381136376 -0.05457411047382236 0.0) 
(0.0538820221756231 -0.054574722324660416 0.0) 
(0.061631814809046455 -0.052993490438387206 0.0) 
(0.06951837186464803 -0.05109574138504858 0.0) 
(0.07713889138986928 -0.04904295860715121 0.0) 
(0.08328657348265303 -0.04188308428941546 0.0) 
)
;
	}
	left
	{
		type	fixedValue;
		value	uniform (0.0 0.0 0.0);
	}
	right
	{
		type	fixedValue;
		value	uniform (0.1 0.0 0.0);
	}
	frontAndBackPlanes
	{
		type	empty;
	}
}
