/*
 _____     _____     _____ _____ _____ _____    |  High-order Python FOAM
|  |  |___|  _  |_ _|   __|     |  _  |     |   |  Python Version: 3.10
|     | . |   __| | |   __|  |  |     | | | |   |  Code Version: 0.0
|__|__|___|__|  |_  |__|  |_____|__|__|_|_|_|   |  License: GPLv3
                |___|
*/
FoamFile
{
    version     2.0;
    format      ascii;
    class       volVectorField;
    location    "96.0";
    object     U;
}

dimensions      [0 1 0 0 0 0 0]; 

internalField   nonuniform List<vector>
100
(
(0.01508780108131829 0.03678683815995396 0.0) 
(0.02004893619089275 0.046244927594019776 0.0) 
(0.028631046908315555 0.04687012820563766 0.0) 
(0.03739597017754751 0.0494274815695476 0.0) 
(0.045914020965624976 0.05088253650471061 0.0) 
(0.054412869853142434 0.05086582547549738 0.0) 
(0.06296497774189584 0.04937436048148575 0.0) 
(0.07184081227380211 0.04686263859719486 0.0) 
(0.08016407433174043 0.04583510603841888 0.0) 
(0.0859929621321477 0.03609695455731389 0.0) 
(0.01627720843505697 0.02455160428043623 0.0) 
(0.014899584154258062 0.036090893436227525 0.0) 
(0.024784396210861752 0.03986098071441174 0.0) 
(0.035159609818944254 0.04171879265957946 0.0) 
(0.045193251960088894 0.0427553622212638 0.0) 
(0.055132261862318184 0.04273000027996232 0.0) 
(0.06518823571892632 0.04163897715602708 0.0) 
(0.07556830488629704 0.039679787902895586 0.0) 
(0.08545888826801225 0.03569497246185535 0.0) 
(0.08386442005018686 0.024399378391415524 0.0) 
(0.01178031168487998 0.013217722668915247 0.0) 
(0.011042780483143388 0.02442920111917819 0.0) 
(0.021289351293728734 0.028476244844516066 0.0) 
(0.03310224650357234 0.03032099747671391 0.0) 
(0.044502971224101365 0.03107549602244455 0.0) 
(0.05575566900545658 0.031044713398339654 0.0) 
(0.06715048853392092 0.030222762883052656 0.0) 
(0.07892986026124453 0.028290753032115517 0.0) 
(0.08906838903074779 0.02422563125253402 0.0) 
(0.08831960076961073 0.01315747727839405 0.0) 
(0.011762944994467115 0.007364531456595335 0.0) 
(0.008356581353157453 0.013897686548980555 0.0) 
(0.018933357905275817 0.01708767672286056 0.0) 
(0.03154112380625391 0.01846703092802715 0.0) 
(0.04395768159885026 0.018987297590183944 0.0) 
(0.056222647063140986 0.018961393614308143 0.0) 
(0.06861850874539471 0.018388912076646155 0.0) 
(0.08117304804272489 0.01697219902889177 0.0) 
(0.09168846412306624 0.013791652208865142 0.0) 
(0.08819959589061785 0.007345442832717675 0.0) 
(0.011893465135564885 0.002351218738097731 0.0) 
(0.007461051619625659 0.004572853483688193 0.0) 
(0.017794222091651234 0.005685897088993557 0.0) 
(0.030739173260579757 0.006213569608641855 0.0) 
(0.04365758920288634 0.006399522795652475 0.0) 
(0.05646196500181165 0.006384114590343456 0.0) 
(0.06935682321323874 0.0061705367774505795 0.0) 
(0.08225983191294974 0.005626477390314542 0.0) 
(0.09255303268358799 0.004523986856119527 0.0) 
(0.08812505724431144 0.002332415078979086 0.0) 
(0.011927803645062527 -0.002289722556748803 0.0) 
(0.0074610475899979396 -0.004557972073752543 0.0) 
(0.017796588017135753 -0.0056978208457861895 0.0) 
(0.030737934132064874 -0.006232937478892299 0.0) 
(0.04364729624889993 -0.006428300321017916 0.0) 
(0.056441937212965254 -0.006432679774189899 0.0) 
(0.06933062874413054 -0.006244779808376694 0.0) 
(0.08223543314359856 -0.005715013638762142 0.0) 
(0.09254300889944313 -0.00458320593517735 0.0) 
(0.08808673199820391 -0.002313040069197333 0.0) 
(0.011803650669555759 -0.007306302115152233 0.0) 
(0.00836690747306116 -0.013891607450531753 0.0) 
(0.018948032154526322 -0.01709407166190004 0.0) 
(0.031538736719614754 -0.018468442189132798 0.0) 
(0.04392691341068806 -0.018996367406337478 0.0) 
(0.05616154377772309 -0.018992323705476398 0.0) 
(0.06853407489808921 -0.018455657139820295 0.0) 
(0.08109272388814147 -0.01707296510942137 0.0) 
(0.09163678839906841 -0.013885650264137343 0.0) 
(0.08817497995345062 -0.007341642135531776 0.0) 
(0.011921943441350138 -0.013192572832432718 0.0) 
(0.011115207699932605 -0.024445672855285587 0.0) 
(0.021320971324230855 -0.028448440526349938 0.0) 
(0.03309935119212407 -0.03028277796860165 0.0) 
(0.04445314828716706 -0.03104319366561789 0.0) 
(0.055652848553159016 -0.031034851852436367 0.0) 
(0.06700070058057638 -0.030257627502535116 0.0) 
(0.07875955539477007 -0.02840569122678807 0.0) 
(0.0889639131169072 -0.024380354558906792 0.0) 
(0.08812075895731987 -0.013213272419306489 0.0) 
(0.016810248993408636 -0.024673531705486314 0.0) 
(0.014968210159313534 -0.036052029143597134 0.0) 
(0.0248201450787347 -0.0397766583019734 0.0) 
(0.03514575315211972 -0.04161817287844541 0.0) 
(0.04512084299133452 -0.042659066388150396 0.0) 
(0.054996164126270924 -0.042656408135210544 0.0) 
(0.06497818691841391 -0.041601148758095695 0.0) 
(0.07531257744214213 -0.03973544341437893 0.0) 
(0.08514898918378093 -0.03599508782682099 0.0) 
(0.08375146549993573 -0.024541471991117954 0.0) 
(0.015061868904315616 -0.03695331507236216 0.0) 
(0.020126191632456433 -0.04615194907689474 0.0) 
(0.028624873288222677 -0.046748538663663394 0.0) 
(0.037363848920490925 -0.04927137794517349 0.0) 
(0.04583458523202701 -0.05073695404729623 0.0) 
(0.05427130414152106 -0.05073586920027858 0.0) 
(0.0627449199766177 -0.04926935973025341 0.0) 
(0.07148109873513625 -0.046718737078468464 0.0) 
(0.08003463363726554 -0.04610615039050078 0.0) 
(0.08496122825098558 -0.036721280301112304 0.0) 
)
;

boundaryField
{
	bottom
	{
		type	solidTraction;
		value	nonuniform List<vector>
10
(
(0.016105802716720196 0.04264322832710932 0.0) 
(0.022639356648292783 0.049150736266900426 0.0) 
(0.030552482780941855 0.05109137058974625 0.0) 
(0.038475408095703476 0.05308299943892046 0.0) 
(0.04627761480403476 0.05464077697107445 0.0) 
(0.05405887770681551 0.05462855730808475 0.0) 
(0.06191384494268787 0.0530681581149928 0.0) 
(0.06988191646949356 0.051052722343915315 0.0) 
(0.0779147284576225 0.04871957145049671 0.0) 
(0.08510059750805928 0.04183615611317903 0.0) 
)
;
	}
	top
	{
		type	solidTraction;
		value	nonuniform List<vector>
10
(
(0.01599239445835734 -0.04280067931692989 0.0) 
(0.02261632595307599 -0.04909877701504335 0.0) 
(0.030541254484746875 -0.05094815984519081 0.0) 
(0.0384293217042483 -0.052909889150742455 0.0) 
(0.0461906270589055 -0.05447046684278792 0.0) 
(0.053910047041811925 -0.05447120586584277 0.0) 
(0.06167084648374541 -0.05290865950981035 0.0) 
(0.0695682356050922 -0.050925355169421406 0.0) 
(0.07745740353850644 -0.04900571532672943 0.0) 
(0.08396133464018742 -0.042553107429935365 0.0) 
)
;
	}
	left
	{
		type	fixedValue;
		value	uniform (0.0 0.0 0.0);
	}
	right
	{
		type	fixedValue;
		value	uniform (0.1 0.0 0.0);
	}
	frontAndBackPlanes
	{
		type	empty;
	}
}
