/*
 _____     _____     _____ _____ _____ _____    |  High-order Python FOAM
|  |  |___|  _  |_ _|   __|     |  _  |     |   |  Python Version: 3.10
|     | . |   __| | |   __|  |  |     | | | |   |  Code Version: 0.0
|__|__|___|__|  |_  |__|  |_____|__|__|_|_|_|   |  License: GPLv3
                |___|
*/
FoamFile
{
    version     2.0;
    format      ascii;
    class       volVectorField;
    location    "5.0";
    object     U;
}

dimensions      [0 1 0 0 0 0 0]; 

internalField   nonuniform List<vector>
100
(
(0.019658647413709096 0.015168452742234474 0.0) 
(0.03264350543667893 0.04026277104735108 0.0) 
(0.037704840701126195 0.05510690281595303 0.0) 
(0.0429859298297955 0.06368405132440853 0.0) 
(0.047680318673988836 0.0676471531032053 0.0) 
(0.0523872961988418 0.06761186331403664 0.0) 
(0.0570993048373407 0.06357652250822939 0.0) 
(0.06242418929508372 0.05493873992710282 0.0) 
(0.06754319043376177 0.04003879758763677 0.0) 
(0.08077515296003646 0.01519534899028705 0.0) 
(0.011622568678119297 0.014845551070127638 0.0) 
(0.01961204417822708 0.032603281998482204 0.0) 
(0.02885866772510857 0.046091209631533785 0.0) 
(0.03740982995173931 0.053816103150991314 0.0) 
(0.04585786575160347 0.05738736259773343 0.0) 
(0.05425461347060445 0.05735667218330892 0.0) 
(0.06270839757092773 0.053727952893741125 0.0) 
(0.07126031622089399 0.04596192166835933 0.0) 
(0.08048498606486211 0.032491198569512686 0.0) 
(0.08834433831464178 0.014815512741269906 0.0) 
(0.01123328110585792 0.010650841018220465 0.0) 
(0.016216549590571668 0.024361477363168835 0.0) 
(0.02440812040479091 0.034028381114755285 0.0) 
(0.034209220262973634 0.040178758069503266 0.0) 
(0.04468776742534787 0.04302946684919972 0.0) 
(0.05537487897815041 0.043006084735341545 0.0) 
(0.06584478302978095 0.04011541705899825 0.0) 
(0.07562808277222291 0.03394606637986089 0.0) 
(0.08378907216087317 0.024298475698131407 0.0) 
(0.08879416588426185 0.010638719452773195 0.0) 
(0.011760737141275344 0.006663958937034725 0.0) 
(0.014974540170221718 0.01496372703004657 0.0) 
(0.022581429297848985 0.02085554305812899 0.0) 
(0.032627835300545284 0.024685695582806894 0.0) 
(0.04407326263198893 0.026529889319511855 0.0) 
(0.05594538613672321 0.02651420137319737 0.0) 
(0.06738182397196725 0.024644196348322517 0.0) 
(0.07741153996426271 0.020805413911213634 0.0) 
(0.08500311972463587 0.01492628467593146 0.0) 
(0.08813049712382327 0.006652224306624494 0.0) 
(0.012289369029932619 0.002229635393365199 0.0) 
(0.014668545861148127 0.005040005308472558 0.0) 
(0.021924461091315586 0.007005178079440214 0.0) 
(0.03203216046067241 0.008297331777785681 0.0) 
(0.043826689639925885 0.008924407843691992 0.0) 
(0.0561661958297037 0.00891398252190055 0.0) 
(0.06795441965812837 0.008269941002298914 0.0) 
(0.0780532642189941 0.006971071426855539 0.0) 
(0.08530565266830463 0.005016188710516113 0.0) 
(0.08770579429256856 0.0022201374475945617 0.0) 
(0.012333079360612394 -0.0022186364378251893 0.0) 
(0.014680209667279672 -0.005054927662025996 0.0) 
(0.02193599175507295 -0.007042367837232761 0.0) 
(0.0320385061804476 -0.00835074865227083 0.0) 
(0.043827432259993505 -0.008995245863491177 0.0) 
(0.05616223250150326 -0.009002362876788246 0.0) 
(0.06794660918405573 -0.008370148216937792 0.0) 
(0.07804248080986219 -0.007068709912184484 0.0) 
(0.08529815929359821 -0.005084371313081712 0.0) 
(0.08766313700249248 -0.0022344009528657083 0.0) 
(0.011775889369728548 -0.006654586887289191 0.0) 
(0.01502469006939514 -0.014984258689251816 0.0) 
(0.022619624626259476 -0.02088740439006311 0.0) 
(0.03264709557836813 -0.024729462155737444 0.0) 
(0.044075936596793035 -0.02659427751579665 0.0) 
(0.055934453719075135 -0.02659902957569937 0.0) 
(0.06735853790691332 -0.02474345810655912 0.0) 
(0.07737896421041357 -0.02090694011009666 0.0) 
(0.0849610702217316 -0.015008201944575908 0.0) 
(0.08814101906991777 -0.006671499387486317 0.0) 
(0.011401778500255807 -0.010646978883190628 0.0) 
(0.016328925700460153 -0.024387184939083748 0.0) 
(0.02447138351851805 -0.03403597288559189 0.0) 
(0.03424149747667209 -0.040206228165768035 0.0) 
(0.044700572279065265 -0.043084793648304205 0.0) 
(0.05535766574502692 -0.043083389921820335 0.0) 
(0.06580564467735403 -0.04021585012577129 0.0) 
(0.07557263068633693 -0.03405369558767219 0.0) 
(0.08372552869859809 -0.024396112844994478 0.0) 
(0.08859713016910167 -0.01065422719217484 0.0) 
(0.011961223953930625 -0.014831681593331328 0.0) 
(0.019737987322201042 -0.03257237248516535 0.0) 
(0.028936349219232983 -0.046072875178529746 0.0) 
(0.03745345132235411 -0.0538271067697138 0.0) 
(0.04586410302039586 -0.05742519816688114 0.0) 
(0.054236345295913466 -0.057430831768776607 0.0) 
(0.06265729257348113 -0.05383339368689624 0.0) 
(0.07117556675404414 -0.046095319145240565 0.0) 
(0.08037023186984808 -0.0326077811127376 0.0) 
(0.08837389313452818 -0.014845234275353763 0.0) 
(0.019696431020710826 -0.01515844152959577 0.0) 
(0.03276850317432023 -0.04016321503566638 0.0) 
(0.037801295021143 -0.055066015120577336 0.0) 
(0.043056185476557866 -0.06367597951066808 0.0) 
(0.047720489198522356 -0.0676782281305586 0.0) 
(0.05239012581840728 -0.06767989334642097 0.0) 
(0.057057324718825214 -0.06368271590695641 0.0) 
(0.062317720167298 -0.05507851801723022 0.0) 
(0.06736225437499867 -0.04024292614348373 0.0) 
(0.08032076595834985 -0.01516837019301764 0.0) 
)
;

boundaryField
{
	bottom
	{
		type	solidTraction;
		value	nonuniform List<vector>
10
(
(0.024341488382022852 0.016798765459589745 0.0) 
(0.03613929111755067 0.04044723027661111 0.0) 
(0.04235169298876529 0.058390153288888386 0.0) 
(0.04567247067637696 0.06812892165153989 0.0) 
(0.04860845152490999 0.07259114117516519 0.0) 
(0.05144121356162604 0.07255179275008382 0.0) 
(0.05440406812201993 0.06801065681600721 0.0) 
(0.05779079451068018 0.058197149793200294 0.0) 
(0.06416900583021243 0.04026986276504905 0.0) 
(0.07619572090255063 0.016807849475095695 0.0) 
)
;
	}
	top
	{
		type	solidTraction;
		value	nonuniform List<vector>
10
(
(0.024331034553068405 -0.016757222847984563 0.0) 
(0.0362101293815242 -0.0403558207744983 0.0) 
(0.042456951611074885 -0.05832782528077459 0.0) 
(0.045755890330265094 -0.06811358000999773 0.0) 
(0.048662505514803014 -0.07261936052622567 0.0) 
(0.05145332026060118 -0.07262077313738406 0.0) 
(0.05436145932458877 -0.06812071383495452 0.0) 
(0.057668054055921965 -0.05835510260743773 0.0) 
(0.06386928647835616 -0.040419744843240256 0.0) 
(0.0756469273579715 -0.01678994262984377 0.0) 
)
;
	}
	left
	{
		type	fixedValue;
		value	uniform (0.0 0.0 0.0);
	}
	right
	{
		type	fixedValue;
		value	uniform (0.1 0.0 0.0);
	}
	frontAndBackPlanes
	{
		type	empty;
	}
}
