/*
 _____     _____     _____ _____ _____ _____    |  High-order Python FOAM
|  |  |___|  _  |_ _|   __|     |  _  |     |   |  Python Version: 3.10
|     | . |   __| | |   __|  |  |     | | | |   |  Code Version: 0.0
|__|__|___|__|  |_  |__|  |_____|__|__|_|_|_|   |  License: GPLv3
                |___|
*/
FoamFile
{
    version     2.0;
    format      ascii;
    class       volScalarField;
    location    "97.0";
    object     p;
}

dimensions      [0 0 0 1 0 0 0]; 

internalField   nonuniform List<scalar>
100
(
380124.1491739997 
-160456.173132253 
-205772.12702837138 
-153616.5798812403 
-138934.09265824125 
-139187.29649877077 
-154232.98922753494 
-204024.73152184495 
-129217.99464922829 
355291.77862749586 
1385550.3304395273 
373357.07788402884 
155555.12594596116 
186820.15642828704 
209405.82649584668 
209688.0682616836 
188499.2094350178 
163191.100198673 
378256.3179738151 
1373091.237716084 
1494044.8600662777 
501581.2785648833 
204911.08851081962 
211309.57882364208 
228868.57222884928 
229087.4574904015 
212526.99846868453 
207142.32615122877 
502519.00361037895 
1486169.5701912355 
1661608.7381897303 
558597.7335693351 
249107.54429482316 
237869.36363672986 
249189.99265298614 
249239.80421816627 
238114.7561659122 
249316.39096146345 
557298.0985137568 
1658702.916999798 
1745426.2744850393 
611201.0990451077 
284374.05853711726 
267518.02107151074 
275179.9386184777 
275120.32092873147 
267387.7288699814 
284004.55083750567 
610104.5231939625 
1742885.4750386623 
1747561.3001497386 
611075.8951542508 
283911.24269025744 
267157.1049667298 
274925.7105959537 
274852.9759436314 
267038.8982742005 
283531.526660849 
609828.878266267 
1744783.3605507903 
1668180.8811650248 
558150.255411715 
247481.7531207246 
236870.0135290007 
248461.70417757204 
248468.7953411203 
236976.4155771161 
247494.21197747585 
556588.9199495503 
1664320.019729087 
1507199.945965131 
500137.712498283 
201629.1544758173 
209541.0094621264 
227658.63531656237 
227786.81676541147 
210243.81402960152 
203160.38115808347 
499130.62458012294 
1496915.8716893415 
1405565.6401916165 
369757.3295039125 
152321.9071698377 
184792.51254246043 
208030.72675988366 
208214.82147723628 
185966.54801542635 
154666.43460319552 
371756.42448913597 
1385023.4296353515 
377572.62595942663 
-156644.62599320742 
-206009.2634273972 
-152869.59602554256 
-138071.84489658705 
-138244.93932874908 
-153262.1342524367 
-205964.80995789735 
-160506.83588948363 
378847.8839230686 
)
;

boundaryField
{
	bottom
	{
		type	pressureTraction;
	}
	top
	{
		type	pressureTraction;
	}
	left
	{
		type	fixedValueFromZeroGrad;
	}
	right
	{
		type	fixedValueFromZeroGrad;
	}
	frontAndBackPlanes
	{
		type	empty;
	}
}
