/*
 _____     _____     _____ _____ _____ _____    |  High-order Python FOAM
|  |  |___|  _  |_ _|   __|     |  _  |     |   |  Python Version: 3.10
|     | . |   __| | |   __|  |  |     | | | |   |  Code Version: 0.0
|__|__|___|__|  |_  |__|  |_____|__|__|_|_|_|   |  License: GPLv3
                |___|
*/
FoamFile
{
    version     2.0;
    format      ascii;
    class       volScalarField;
    location    "97.0";
    object     pCorr;
}

dimensions      [0 0 0 1 0 0 0]; 

internalField   nonuniform List<scalar>
100
(
-606.80251915508 
-510.83274712320485 
-152.99601122357146 
-55.56871569883332 
-228.63317502818873 
-226.89372488322434 
-67.02107607513302 
-172.93332221380913 
-378.6677881379765 
-674.0460520167624 
2183.492005805783 
-466.8841027722577 
4.707308129893676 
356.2611361183817 
318.27395071000535 
317.2838002841534 
351.1989894684002 
16.928102155776017 
-446.05894652543276 
2147.582797613971 
1905.5718798297335 
-747.4586103375356 
-371.45403155749483 
125.2222964068309 
122.45050506820958 
121.8956902382343 
124.8901185142282 
-368.25038409552263 
-744.2223458807234 
1856.463737258815 
2080.4855046082857 
-986.8414889571607 
-531.3369567377129 
18.780631358991297 
35.22861707610425 
35.1548504127678 
19.13754252982821 
-529.9941368746765 
-990.8079304477186 
2048.2771182939928 
2204.5188324166656 
-975.632644026161 
-525.3863314518475 
53.893611428565386 
76.46260182716176 
76.4013677575717 
54.35428807570139 
-524.0375065510688 
-978.2806214532337 
2177.909026314996 
2209.926056475676 
-977.8575418473673 
-527.0242324216489 
53.600372023075614 
76.49323059951728 
76.2242681843258 
53.961819831236305 
-525.3626503593033 
-979.9546349571989 
2186.975815831203 
2097.7840899955854 
-997.5958688731748 
-537.9191068149051 
18.324734344076795 
35.100049775174845 
34.638640475859674 
18.719222274360874 
-533.8564219377869 
-994.7727353435041 
2073.908474327122 
1941.51069171246 
-765.6921471474103 
-385.8821529011095 
121.97104094433536 
119.89462604818283 
119.00130248544508 
123.63521998464796 
-373.3960249926214 
-754.7405708095195 
1901.342353812948 
2261.9661083648475 
-494.0214248193844 
-11.260556272438798 
349.6333395870613 
311.74729234694405 
310.65946386820997 
351.4988570961237 
4.093118167162891 
-470.33380672862233 
2177.1319181345198 
-633.5511771938957 
-499.7249136617965 
-153.34124215966685 
-48.7739162951419 
-225.4666027603992 
-227.0082780083706 
-51.09976193666406 
-151.49169327209478 
-508.1999762282466 
-612.1375402789006 
)
;

boundaryField
{
	bottom
	{
		type	fixedValue;
		value	uniform 0.0;
	}
	top
	{
		type	fixedValue;
		value	uniform 0.0;
	}
	left
	{
		type	zeroGradient;
	}
	right
	{
		type	zeroGradient;
	}
	frontAndBackPlanes
	{
		type	empty;
	}
}
