/*
 _____     _____     _____ _____ _____ _____    |  High-order Python FOAM
|  |  |___|  _  |_ _|   __|     |  _  |     |   |  Python Version: 3.10
|     | . |   __| | |   __|  |  |     | | | |   |  Code Version: 0.0
|__|__|___|__|  |_  |__|  |_____|__|__|_|_|_|   |  License: GPLv3
                |___|
*/
FoamFile
{
    version     2.0;
    format      ascii;
    class       volScalarField;
    location    "99.0";
    object     pCorr;
}

dimensions      [0 0 0 1 0 0 0]; 

internalField   nonuniform List<scalar>
100
(
-586.7455770790148 
-472.1714819532705 
-145.0875816226705 
-51.99118238128477 
-214.32250632603538 
-212.47890083351732 
-62.81786779097709 
-164.4305261776235 
-346.37186359962857 
-650.3642029027069 
2084.0988363594874 
-448.7535058695921 
-0.3047435096350109 
333.9947086205414 
299.3072832549473 
298.4668089905921 
329.2849543054315 
11.209329472890607 
-429.032622915091 
2049.607189585887 
1808.2486252560798 
-718.2827945781823 
-355.6012342656089 
117.59650309208116 
113.49344043154004 
113.01570129242032 
117.38016861934598 
-352.41680773640513 
-715.0955652414582 
1760.8268315543783 
1975.4687008533479 
-946.8508682611721 
-504.58177325518886 
19.040105415313988 
31.07628326536104 
31.023041222138392 
19.44726813939174 
-503.0979908311988 
-950.3544376700347 
1944.233705912656 
2094.407457307512 
-935.3705425713287 
-497.5865585046893 
53.42079317971433 
70.31316752103713 
70.24999265318401 
53.88473572795629 
-496.13019058960873 
-937.6307226993591 
2068.6532455689735 
2099.5482630406027 
-937.5170942953515 
-499.1404082082076 
53.16306639722762 
70.35680125201422 
70.08391148997514 
53.4962589120386 
-497.44311323815384 
-939.309420034549 
2077.338302715741 
1991.903398543819 
-957.253083395695 
-510.839521109213 
18.680821353645673 
30.99217163956152 
30.52575002427166 
19.014959862087526 
-506.88131951615054 
-954.3148779375323 
1968.8072127515015 
1842.4060938753682 
-735.8678459956545 
-369.37291495273587 
114.57772280038182 
111.08386948409762 
110.19888140575495 
116.10524371608906 
-357.3697022158227 
-725.1502232062787 
1803.828125086775 
2159.3537266480716 
-474.8295053375257 
-15.608706817444421 
327.7027283932032 
293.07226781993876 
292.0099794527003 
329.4334910442714 
-0.893579185615087 
-451.99675852358433 
2077.8687464029103 
-612.5689550254132 
-461.5505477147194 
-145.41928052407738 
-45.38901089811702 
-211.23036536194078 
-212.7422895973687 
-47.67301972109416 
-143.63046125698912 
-469.59664432214015 
-591.794056967062 
)
;

boundaryField
{
	bottom
	{
		type	fixedValue;
		value	uniform 0.0;
	}
	top
	{
		type	fixedValue;
		value	uniform 0.0;
	}
	left
	{
		type	zeroGradient;
	}
	right
	{
		type	zeroGradient;
	}
	frontAndBackPlanes
	{
		type	empty;
	}
}
