/*
 _____     _____     _____ _____ _____ _____    |  High-order Python FOAM
|  |  |___|  _  |_ _|   __|     |  _  |     |   |  Python Version: 3.10
|     | . |   __| | |   __|  |  |     | | | |   |  Code Version: 0.0
|__|__|___|__|  |_  |__|  |_____|__|__|_|_|_|   |  License: GPLv3
                |___|
*/
FoamFile
{
    version     2.0;
    format      ascii;
    class       volVectorField;
    location    "99.0";
    object     U;
}

dimensions      [0 1 0 0 0 0 0]; 

internalField   nonuniform List<vector>
100
(
(0.015045532180377614 0.03684755122772961 0.0) 
(0.0200352502099795 0.04622939697735035 0.0) 
(0.02863022795922914 0.04686160131283033 0.0) 
(0.03739439198872453 0.049422514422423465 0.0) 
(0.045912510009573776 0.05087319654986294 0.0) 
(0.054415818918787336 0.05085619816359979 0.0) 
(0.06296838701184418 0.049368604829968486 0.0) 
(0.07184523449676085 0.04685527429982693 0.0) 
(0.08017764395773579 0.04582079419625933 0.0) 
(0.08603821486804283 0.03615112244251564 0.0) 
(0.01631401918422349 0.02461631404891868 0.0) 
(0.01488295702929925 0.03609349249396374 0.0) 
(0.024787320468280725 0.03985301976106548 0.0) 
(0.03516502410248792 0.041712587871614734 0.0) 
(0.045195231284875084 0.0427493043516392 0.0) 
(0.055131743030975386 0.04272378201759185 0.0) 
(0.06518442837837272 0.04163255334380193 0.0) 
(0.07556692399639164 0.039671735784396325 0.0) 
(0.08547735820243718 0.03569564647746506 0.0) 
(0.08382951769976162 0.024462938552436215 0.0) 
(0.011798329032491645 0.013234136369239325 0.0) 
(0.011028942193091605 0.024433903092309018 0.0) 
(0.021296479066097454 0.02846724974520723 0.0) 
(0.033112019700929536 0.030310392682431114 0.0) 
(0.04450637261408409 0.031064881974537408 0.0) 
(0.05575344058200022 0.031034021245283913 0.0) 
(0.06714189499392773 0.030211959095378944 0.0) 
(0.07892391656997857 0.028281141310210648 0.0) 
(0.08908277027621343 0.02422929882308193 0.0) 
(0.08830236319883514 0.01317329648782517 0.0) 
(0.011776859946558672 0.007375293879448427 0.0) 
(0.008333983094665464 0.01389915690785539 0.0) 
(0.018941308630239965 0.017083421977739037 0.0) 
(0.0315531733303399 0.018460333495085884 0.0) 
(0.04396193909133767 0.018980152900484246 0.0) 
(0.05621928389937485 0.01895420209269994 0.0) 
(0.06860729101486182 0.01838203518900217 0.0) 
(0.08116564618975572 0.016967585699457107 0.0) 
(0.09171117295873964 0.013792696791444526 0.0) 
(0.08818614507045776 0.007356274180460048 0.0) 
(0.011907345761789704 0.002354565708040297 0.0) 
(0.0074358787337121925 0.004573854758711532 0.0) 
(0.017801399915149497 0.005684848135753472 0.0) 
(0.03075191948021945 0.006211719384437027 0.0) 
(0.0436621534153923 0.006397394143915568 0.0) 
(0.056458084620307054 0.006381970588679834 0.0) 
(0.06934464499095624 0.006168641391453618 0.0) 
(0.08225293158055451 0.005625353038862277 0.0) 
(0.09257810934055101 0.004524945569788402 0.0) 
(0.08811149463982253 0.0023358529226066636 0.0) 
(0.011941774566841722 -0.0022925485814667265 0.0) 
(0.007435809442760892 -0.004558925028311245 0.0) 
(0.01780377597350565 -0.005696884968954305 0.0) 
(0.030750696561459755 -0.006231191236536052 0.0) 
(0.04365182602276047 -0.006426252476934143 0.0) 
(0.05643797399253745 -0.0064306037590105 0.0) 
(0.06931833386497137 -0.006242933116515595 0.0) 
(0.08222843104851049 -0.0057138984848399445 0.0) 
(0.09256808330288147 -0.004583985545328731 0.0) 
(0.08807298816655504 -0.002315831287810539 0.0) 
(0.011817717624073382 -0.007316517003165609 0.0) 
(0.008344101916320299 -0.013893034302975338 0.0) 
(0.0189560688119257 -0.017089923000029105 0.0) 
(0.031550833423517874 -0.01846177734371532 0.0) 
(0.043931057228686086 -0.018989238259174583 0.0) 
(0.05615793277304885 -0.018985139845407464 0.0) 
(0.06852248313802368 -0.01844878045076898 0.0) 
(0.08108495902892864 -0.017068398116595575 0.0) 
(0.09165942057809455 -0.013886692830067555 0.0) 
(0.08816109880997082 -0.007351987555726249 0.0) 
(0.011940249123092075 -0.013208452629875786 0.0) 
(0.011101314817977633 -0.024450440353780977 0.0) 
(0.02132822288068654 -0.028439290013002536 0.0) 
(0.03310916803480185 -0.030271987624309243 0.0) 
(0.04445632957778738 -0.031032409987529642 0.0) 
(0.0556501910498089 -0.031024022017784154 0.0) 
(0.06699146983834954 -0.030246632336482556 0.0) 
(0.07875275355287166 -0.028396092396569064 0.0) 
(0.08897789308532378 -0.024384423083282255 0.0) 
(0.08810296254401719 -0.013229396668739587 0.0) 
(0.01684951051077939 -0.024739634500532775 0.0) 
(0.014951197737775122 -0.0360541768843114 0.0) 
(0.024823167738405216 -0.03976808582410133 0.0) 
(0.0351511060752761 -0.041611330572821466 0.0) 
(0.04512244886086508 -0.042652448304849266 0.0) 
(0.05499499993853723 -0.04264977253909695 0.0) 
(0.06497335913053703 -0.04159423067041212 0.0) 
(0.07530996506527621 -0.039726642601827365 0.0) 
(0.08516588638069592 -0.035996865484530224 0.0) 
(0.0837149509275653 -0.02460581873039756 0.0) 
(0.015018616439154144 -0.03701544504009858 0.0) 
(0.020112783240886032 -0.04613570310509604 0.0) 
(0.02862384374940705 -0.0467392878940739 0.0) 
(0.03736204136089303 -0.04926551236770143 0.0) 
(0.04583258754461855 -0.05072677682007411 0.0) 
(0.05427360400776106 -0.05072566487450755 0.0) 
(0.06274705589229329 -0.0492634842508105 0.0) 
(0.07148233668983714 -0.04670936292886545 0.0) 
(0.08004857936945523 -0.04608977606071268 0.0) 
(0.08500382762101481 -0.03678116181623118 0.0) 
)
;

boundaryField
{
	bottom
	{
		type	solidTraction;
		value	nonuniform List<vector>
10
(
(0.01604844830612791 0.042698869701058476 0.0) 
(0.02261387645772701 0.04915029006159757 0.0) 
(0.030547514418224644 0.05108066296696817 0.0) 
(0.03847109948946644 0.05307658885281523 0.0) 
(0.046275459516690695 0.05463105761605578 0.0) 
(0.0540625654422565 0.054618495795687824 0.0) 
(0.06192048511526541 0.05306134717857613 0.0) 
(0.06989000430461793 0.051043427777323576 0.0) 
(0.0779414849724382 0.04871882492772446 0.0) 
(0.08516059645482084 0.0418850471683205 0.0) 
)
;
	}
	top
	{
		type	solidTraction;
		value	nonuniform List<vector>
10
(
(0.015933628549564136 -0.04285768874197511 0.0) 
(0.022590510429808815 -0.04909804997525588 0.0) 
(0.030536097846653253 -0.05093661782211657 0.0) 
(0.03842465086186144 -0.052902502468803146 0.0) 
(0.04618794823265578 -0.05445982370698145 0.0) 
(0.05391295675828434 -0.054460552892054155 0.0) 
(0.06167572749874389 -0.05290127193368311 0.0) 
(0.06957364841241266 -0.05091376460658996 0.0) 
(0.07748320989530619 -0.049004361633138135 0.0) 
(0.0840190253361443 -0.04260780189821845 0.0) 
)
;
	}
	left
	{
		type	fixedValue;
		value	uniform (0.0 0.0 0.0);
	}
	right
	{
		type	fixedValue;
		value	uniform (0.1 0.0 0.0);
	}
	frontAndBackPlanes
	{
		type	empty;
	}
}
