/*
 _____     _____     _____ _____ _____ _____    |  High-order Python FOAM
|  |  |___|  _  |_ _|   __|     |  _  |     |   |  Python Version: 3.10
|     | . |   __| | |   __|  |  |     | | | |   |  Code Version: 0.0
|__|__|___|__|  |_  |__|  |_____|__|__|_|_|_|   |  License: GPLv3
                |___|
*/
FoamFile
{
    version     2.0;
    format      ascii;
    class       volScalarField;
    location    "51.0";
    object     p;
}

dimensions      [0 0 0 1 0 0 0]; 

internalField   nonuniform List<scalar>
100
(
415389.99754206295 
-96502.30863655255 
-187576.2948211848 
-147134.0164492051 
-118081.84285386009 
-118260.85968018291 
-146818.76771759283 
-184825.2640930498 
-75938.02814733393 
396632.84033631446 
1206787.3216056295 
408448.1289611234 
152411.94743017107 
150469.00233593854 
175235.32511695076 
175707.59399083536 
152591.53707101947 
158734.4142377526 
411496.56384240725 
1197153.6478935613 
1325464.7777853927 
554290.8261231406 
234782.61433473323 
198534.27646411184 
212105.9679064017 
212435.07098177366 
199875.35734294326 
236823.76608842023 
554995.5925927404 
1320809.8684359766 
1478317.7063954864 
628183.887244599 
295637.75383562385 
238343.4515330182 
241905.9326104898 
242004.80517230617 
238679.30857196284 
295966.1718018336 
627442.6436271189 
1477362.678963167 
1551937.6235992594 
680155.6231059361 
332378.1795277303 
267384.095748135 
265849.99476516823 
265816.3981885641 
267306.63854731806 
332131.92430504493 
679538.8099755925 
1551086.6623264274 
1553618.8483884514 
680179.626806849 
332057.47977987095 
267077.68834438437 
265611.72076141054 
265559.745692244 
266964.65647700144 
331712.08544488234 
679325.846125134 
1552324.3650667488 
1483447.7717769577 
628407.3291510605 
294562.1023135459 
237483.74183080337 
241231.49881442028 
241248.1325575754 
237526.40752952822 
294365.23550302326 
626906.5590501379 
1481140.2787037112 
1335625.8006741647 
554044.9831184951 
232646.56211787084 
197139.7380710838 
211109.25128223197 
211255.6826595452 
197617.67168227572 
233297.63600020134 
552499.4175816521 
1328285.412423016 
1221015.7596063314 
406763.13987857493 
150382.66009015098 
149015.0473712844 
174321.70865946525 
174535.85718915932 
149935.1277398307 
151574.51775741315 
407200.77200873237 
1206655.7840912575 
414575.805032959 
-93538.3564329862 
-187754.169493586 
-146773.19293747802 
-117447.00249744144 
-117562.50921650985 
-147082.04961820118 
-187837.18016142832 
-96655.44389579675 
414576.9066991296 
)
;

boundaryField
{
	bottom
	{
		type	pressureTraction;
	}
	top
	{
		type	pressureTraction;
	}
	left
	{
		type	fixedValueFromZeroGrad;
	}
	right
	{
		type	fixedValueFromZeroGrad;
	}
	frontAndBackPlanes
	{
		type	empty;
	}
}
