/*
 _____     _____     _____ _____ _____ _____    |  High-order Python FOAM
|  |  |___|  _  |_ _|   __|     |  _  |     |   |  Python Version: 3.10
|     | . |   __| | |   __|  |  |     | | | |   |  Code Version: 0.0
|__|__|___|__|  |_  |__|  |_____|__|__|_|_|_|   |  License: GPLv3
                |___|
*/
FoamFile
{
    version     2.0;
    format      ascii;
    class       volScalarField;
    location    "51.0";
    object     pCorr;
}

dimensions      [0 0 0 1 0 0 0]; 

internalField   nonuniform List<scalar>
100
(
-665.5150344665769 
-3010.343132803735 
-1028.8651861531212 
-350.7614704944024 
-708.2064881040473 
-715.4195200958267 
-378.736743268932 
-1041.0461878248252 
-2647.551937971844 
-896.9796023960037 
6487.979563249577 
-1234.965179867551 
-28.653870967551082 
1397.7846193504529 
1492.9050554760854 
1485.035815631937 
1386.9416227942877 
31.220503871944523 
-1167.5257061216923 
6384.710695215851 
6361.294719269226 
-1702.5656063019478 
-1271.3313460409788 
344.98723713450073 
707.3706210618739 
702.5286049454843 
340.5120733226506 
-1263.1389863493278 
-1693.289180005511 
6269.603939357449 
6878.034354878846 
-2211.036870516183 
-1989.0195055768663 
-354.75467234723925 
155.43945008843045 
152.30263633912546 
-361.39035644177943 
-1998.2585064509565 
-2234.3098845775 
6828.235704079649 
7242.377200432065 
-2197.4782841247534 
-2131.9290289464557 
-473.99381844992195 
87.85313241881047 
85.62120542827861 
-479.93852653042643 
-2143.2908710710717 
-2220.101363212198 
7196.1650486657345 
7258.754432473154 
-2201.727728450591 
-2136.904157407201 
-476.398369543418 
87.26561310055747 
85.8279177637909 
-479.366652569174 
-2144.1815478131557 
-2221.3602450310877 
7216.362097939418 
6929.240054727777 
-2228.2538923475 
-2007.8614176965166 
-361.4360693446713 
153.84786145977347 
153.86066259420227 
-359.6208376138263 
-2005.239507580017 
-2238.9748617095916 
6884.037088196875 
6467.609143773362 
-1735.6872790108148 
-1309.7013468069968 
330.4587496050373 
702.514008585762 
703.4509698277153 
340.5226604450226 
-1283.9210787332288 
-1727.9762765935284 
6371.422268959851 
6674.175793441521 
-1293.139796153703 
-67.7572487568424 
1378.52563678023 
1482.0867971019427 
1483.2820687860901 
1391.0193020263175 
-30.795024892214617 
-1250.8398407594723 
6475.066627402429 
-713.5524688726971 
-2982.5763459893606 
-1032.3656599791336 
-340.8835790602731 
-698.0468208332691 
-698.0994738766744 
-340.94814723938754 
-1028.7745693585837 
-3011.130436760997 
-682.6783772858294 
)
;

boundaryField
{
	bottom
	{
		type	fixedValue;
		value	uniform 0.0;
	}
	top
	{
		type	fixedValue;
		value	uniform 0.0;
	}
	left
	{
		type	zeroGradient;
	}
	right
	{
		type	zeroGradient;
	}
	frontAndBackPlanes
	{
		type	empty;
	}
}
