/*
 _____     _____     _____ _____ _____ _____    |  High-order Python FOAM
|  |  |___|  _  |_ _|   __|     |  _  |     |   |  Python Version: 3.10
|     | . |   __| | |   __|  |  |     | | | |   |  Code Version: 0.0
|__|__|___|__|  |_  |__|  |_____|__|__|_|_|_|   |  License: GPLv3
                |___|
*/
FoamFile
{
    version     2.0;
    format      ascii;
    class       volVectorField;
    location    "51.0";
    object     U;
}

dimensions      [0 1 0 0 0 0 0]; 

internalField   nonuniform List<vector>
100
(
(0.0163266423057514 0.03469858345243665 0.0) 
(0.020650672536739738 0.0468933305239083 0.0) 
(0.028547176219515354 0.04740907218929611 0.0) 
(0.03733400594189481 0.04959294513500259 0.0) 
(0.045911430754091695 0.05101039052735163 0.0) 
(0.05436738600687578 0.051001018410146017 0.0) 
(0.06296533670024444 0.04955395227908155 0.0) 
(0.07182068556971216 0.04735859035431095 0.0) 
(0.07956555278461316 0.0464634877525138 0.0) 
(0.08464505688864367 0.03420173581298514 0.0) 
(0.015125914407605558 0.0227100567901148 0.0) 
(0.015282772144749714 0.03594272348994731 0.0) 
(0.024687783363803114 0.040165355102648556 0.0) 
(0.03498896282064681 0.04190345182911966 0.0) 
(0.04512835848836974 0.04284220653071477 0.0) 
(0.05515152204055511 0.04282004925382424 0.0) 
(0.06530783903526728 0.0418269950310442 0.0) 
(0.07561438458181487 0.03998709410189365 0.0) 
(0.0850161265199968 0.03560581628346761 0.0) 
(0.08496318735231176 0.02258647865535939 0.0) 
(0.011214643517976129 0.012673003927663268 0.0) 
(0.011420721086725141 0.024256956746721677 0.0) 
(0.021100795065925094 0.02876443686779657 0.0) 
(0.032817455483953886 0.030663480786178136 0.0) 
(0.04439586643985868 0.03137662187764467 0.0) 
(0.055827762056635394 0.03134757261487038 0.0) 
(0.06739828189553534 0.030570871319697487 0.0) 
(0.07908014282856946 0.028598599749676545 0.0) 
(0.0886703048813962 0.024085221626880475 0.0) 
(0.08886512694350537 0.01262771741706075 0.0) 
(0.011278440766498915 0.0070451160164261275 0.0) 
(0.00901899750639402 0.013840893938134539 0.0) 
(0.018769834774754378 0.01723659300657952 0.0) 
(0.03119759740863206 0.01869796129333324 0.0) 
(0.043821267959676474 0.019217776326407504 0.0) 
(0.05633336867205815 0.01919311569220783 0.0) 
(0.0689372913406459 0.018625263340542944 0.0) 
(0.08131840826460213 0.01713266380280842 0.0) 
(0.09101838280964908 0.013748813080527882 0.0) 
(0.08867368250569653 0.007025555997405996 0.0) 
(0.011422127027859616 0.0022518752309914755 0.0) 
(0.008216643665041856 0.004543524016491813 0.0) 
(0.01767420096584495 0.005726795608305527 0.0) 
(0.03038142097048982 0.006282430551781825 0.0) 
(0.04351063397239571 0.006473291144045274 0.0) 
(0.05658998308931314 0.006458154561794415 0.0) 
(0.06969861020487862 0.006240524835441797 0.0) 
(0.08237071926779152 0.005669888433814681 0.0) 
(0.0917963033806613 0.00449685604404562 0.0) 
(0.08858805442278411 0.002232367690160525 0.0) 
(0.011453637171870406 -0.0022048287399086233 0.0) 
(0.00821835147599178 -0.004531762915204386 0.0) 
(0.017676553892784212 -0.005737421657237148 0.0) 
(0.030379925985214933 -0.006300671538087998 0.0) 
(0.043501328461062 -0.006501962510794051 0.0) 
(0.05657241164594198 -0.0065074414932091195 0.0) 
(0.06967603867841747 -0.00631591161445081 0.0) 
(0.08234975720923712 -0.005759770183744159 0.0) 
(0.09178714558603673 -0.004561148410511903 0.0) 
(0.08855472788650758 -0.0022281743395696787 0.0) 
(0.011313635948871272 -0.007001760148946205 0.0) 
(0.00903425386014221 -0.013837529672113207 0.0) 
(0.018782969847663842 -0.01724208049699187 0.0) 
(0.031194377774148335 -0.018700535014313603 0.0) 
(0.04379377262189728 -0.019229041850780934 0.0) 
(0.05627983506073855 -0.01922690441533918 0.0) 
(0.0688649280378832 -0.018694404492341977 0.0) 
(0.08125034538862697 -0.017232852608428044 0.0) 
(0.09097168863135623 -0.01384176201493174 0.0) 
(0.08866006434238011 -0.007032955737853953 0.0) 
(0.011344793127284536 -0.012659944306373927 0.0) 
(0.01149273559815486 -0.024272927084814273 0.0) 
(0.02112943443538641 -0.02874272130569992 0.0) 
(0.032814070916653997 -0.030633105489067114 0.0) 
(0.04435249849876264 -0.031352088458917265 0.0) 
(0.05573844479829778 -0.03134527376425461 0.0) 
(0.06727000921436947 -0.030614207258849186 0.0) 
(0.07893875444725386 -0.028713052407680562 0.0) 
(0.08858113883632647 -0.024227174190081458 0.0) 
(0.08868521972271846 -0.012674769336949363 0.0) 
(0.01558567747008066 -0.02279673565457176 0.0) 
(0.01535783788830318 -0.03591608504063594 0.0) 
(0.024721248163744387 -0.04010037445358042 0.0) 
(0.034977974607277265 -0.04182343059310193 0.0) 
(0.04506761663452737 -0.04276380810822162 0.0) 
(0.05503608929169396 -0.042761357837701915 0.0) 
(0.065131488791371 -0.04180836427796156 0.0) 
(0.07539985353063469 -0.0400665952851538 0.0) 
(0.08475756714627633 -0.0358717797043061 0.0) 
(0.0848946735299015 -0.02270742250719039 0.0) 
(0.016323429350952795 -0.03482649400528388 0.0) 
(0.020721820022063228 -0.04682085757883501 0.0) 
(0.028547892755093954 -0.047312296064306175 0.0) 
(0.03730900019842934 -0.049466481774137136 0.0) 
(0.0458461026035791 -0.050889220322210216 0.0) 
(0.05424947405545679 -0.05088788624568989 0.0) 
(0.06279026902568396 -0.04946357992174482 0.0) 
(0.07155182035817823 -0.04728633502841407 0.0) 
(0.07942281236521995 -0.04678212702325537 0.0) 
(0.083710908222572 -0.03465513273276455 0.0) 
)
;

boundaryField
{
	bottom
	{
		type	solidTraction;
		value	nonuniform List<vector>
10
(
(0.017876313040117095 0.04070473510355822 0.0) 
(0.02354743377846156 0.04931075782699379 0.0) 
(0.030634370124891855 0.051721747517993875 0.0) 
(0.03846135991927308 0.05333143458889767 0.0) 
(0.04627970685893723 0.054789139250497554 0.0) 
(0.054003913647625613 0.054784321559132564 0.0) 
(0.061852793894826924 0.053318128105156085 0.0) 
(0.0697105259238192 0.051634980481894195 0.0) 
(0.07696380288045646 0.04889822477183465 0.0) 
(0.08322768570204787 0.040101882157580516 0.0) 
)
;
	}
	top
	{
		type	solidTraction;
		value	nonuniform List<vector>
10
(
(0.017798823574035033 -0.04082480431533531 0.0) 
(0.023535333689467548 -0.04926842253235881 0.0) 
(0.030630134812835923 -0.05160659690755786 0.0) 
(0.03842596411811636 -0.05319008399506831 0.0) 
(0.04620880250232832 -0.05464576946971318 0.0) 
(0.05388340160136183 -0.05464584993514935 0.0) 
(0.061667435067913355 -0.05318759297769133 0.0) 
(0.06947186060828296 -0.051585671648247476 0.0) 
(0.07653690439413603 -0.04919499943466644 0.0) 
(0.08217792867346399 -0.04064090844347451 0.0) 
)
;
	}
	left
	{
		type	fixedValue;
		value	uniform (0.0 0.0 0.0);
	}
	right
	{
		type	fixedValue;
		value	uniform (0.1 0.0 0.0);
	}
	frontAndBackPlanes
	{
		type	empty;
	}
}
