/*
 _____     _____     _____ _____ _____ _____    |  High-order Python FOAM
|  |  |___|  _  |_ _|   __|     |  _  |     |   |  Python Version: 3.10
|     | . |   __| | |   __|  |  |     | | | |   |  Code Version: 0.0
|__|__|___|__|  |_  |__|  |_____|__|__|_|_|_|   |  License: GPLv3
                |___|
*/
FoamFile
{
    version     2.0;
    format      ascii;
    class       volScalarField;
    location    "12.0";
    object     p;
}

dimensions      [0 0 0 1 0 0 0]; 

internalField   nonuniform List<scalar>
100
(
345297.4292488577 
128282.3710025955 
-46871.246278899634 
-109782.34357739596 
-130855.39621551297 
-130540.25271551308 
-108640.15448203782 
-45068.25615093065 
132219.87570219339 
340240.05894356983 
712642.4488625949 
413321.2165171519 
134897.49772106408 
-23683.692518534353 
-86817.93249537758 
-86169.72500083655 
-21899.663637364345 
137336.65255230758 
413942.9157973004 
710032.0323410082 
785189.1501464894 
489293.8807687078 
174502.64738209185 
-20421.28067378134 
-106800.85252360614 
-106285.12876940676 
-19052.167947457834 
176032.86108234266 
490015.8347021791 
784943.9235617691 
844061.1044432451 
506594.22794209106 
192537.18947198096 
-7459.927032176687 
-99178.8241733396 
-98851.61338538527 
-6616.514147669173 
193547.27741239368 
507267.0955444431 
845219.9460694117 
860756.5094995757 
514631.3467392676 
198884.20143449176 
1016.0009050021981 
-90387.78673192776 
-90200.82071464423 
1511.3050934189869 
199527.2205794523 
515356.950285575 
861787.2757177488 
861670.294933551 
514946.05313190987 
198945.77708990712 
932.2085813427329 
-90567.06900184033 
-90464.26366336005 
1194.8997439996438 
199255.8153634121 
515281.7530156524 
862209.4226412157 
846740.8860140452 
507670.62531775126 
192701.76843315366 
-7695.93918467892 
-99714.72061279125 
-99653.79045240846 
-7591.8337165430785 
192677.603623686 
507171.25937160593 
846578.200590209 
789978.424477912 
490599.34407494206 
174627.2011887554 
-20777.39645444101 
-107658.22865544025 
-107552.24292164075 
-20718.758181439578 
174477.17274339957 
489511.3966687368 
787635.3224967468 
717962.9399349974 
414374.0754117299 
135089.6388824971 
-24088.468125126707 
-87523.87966830455 
-87468.82554706074 
-23839.184233776836 
134888.00129561895 
413693.5331650616 
713429.592908814 
346081.41531247733 
130024.65055392342 
-46531.697941702325 
-109715.36181165058 
-131079.1607630347 
-131049.30528809031 
-109704.18881486615 
-46535.79094772309 
128602.53220103659 
345350.0997864658 
)
;

boundaryField
{
	bottom
	{
		type	pressureTraction;
	}
	top
	{
		type	pressureTraction;
	}
	left
	{
		type	fixedValueFromZeroGrad;
	}
	right
	{
		type	fixedValueFromZeroGrad;
	}
	frontAndBackPlanes
	{
		type	empty;
	}
}
