/*
 _____     _____     _____ _____ _____ _____    |  High-order Python FOAM
|  |  |___|  _  |_ _|   __|     |  _  |     |   |  Python Version: 3.10
|     | . |   __| | |   __|  |  |     | | | |   |  Code Version: 0.0
|__|__|___|__|  |_  |__|  |_____|__|__|_|_|_|   |  License: GPLv3
                |___|
*/
FoamFile
{
    version     2.0;
    format      ascii;
    class       volScalarField;
    location    "12.0";
    object     pCorr;
}

dimensions      [0 0 0 1 0 0 0]; 

internalField   nonuniform List<scalar>
100
(
7615.874081154023 
-12832.781672518728 
-17395.67737420159 
-16571.753942533647 
-14349.247732841912 
-14338.480732145132 
-16509.23042339452 
-17258.007164783063 
-12419.474440079697 
7218.566176015487 
11439.878681729795 
-11981.709254183204 
-20740.209717969483 
-18870.387533215562 
-15591.327416678263 
-15557.901368048948 
-18763.704433119103 
-20551.411649966318 
-11915.033672829482 
11231.927708566154 
592.1486017801743 
-18071.780201166508 
-23489.709566764508 
-19073.187248539314 
-14276.003041470627 
-14257.675556124123 
-19018.028563993226 
-23422.450640319697 
-18055.8179097563 
499.432709470127 
-3666.2892110099415 
-19921.663760619103 
-21257.738256665965 
-14615.747897222811 
-8850.368551987647 
-8844.458827876504 
-14601.052115410226 
-21245.29881284844 
-19933.466306385813 
-3713.230864881055 
-4871.016650644855 
-19512.55423896315 
-18875.81683313157 
-10944.880901083889 
-4660.555736110206 
-4659.290766717763 
-10941.804717259862 
-18876.628510738552 
-19528.350080361826 
-4893.956807875881 
-4869.594414348735 
-19530.575540068716 
-18893.390294658573 
-10949.458663541176 
-4654.164491082394 
-4649.2199491165975 
-10936.381544172293 
-18880.60731502258 
-19533.373569101095 
-4886.504175758163 
-3643.488431156074 
-19974.86707758515 
-21305.568384469396 
-14628.080325848203 
-8833.280457233572 
-8821.723580166841 
-14595.979548152332 
-21265.543196362516 
-19955.81241436409 
-3674.243771202364 
674.7210982502316 
-18142.813360179654 
-23561.638313955376 
-19088.0709593514 
-14249.2371527398 
-14229.673230542001 
-19032.720458019805 
-23487.748579513605 
-18112.941445376047 
593.1226642311167 
11621.264434012308 
-12066.464855580423 
-20801.057239671412 
-18876.052772362174 
-15556.552793485907 
-15530.2429317331 
-18801.681686179123 
-20709.71389997025 
-12009.590076848544 
11424.512981419697 
7581.694497008257 
-12814.496360322395 
-17406.444485651413 
-16549.287186526053 
-14303.611935828607 
-14297.661592323071 
-16525.168218348867 
-17356.49875071215 
-12805.864933671557 
7593.272516256328 
)
;

boundaryField
{
	bottom
	{
		type	fixedValue;
		value	uniform 0.0;
	}
	top
	{
		type	fixedValue;
		value	uniform 0.0;
	}
	left
	{
		type	zeroGradient;
	}
	right
	{
		type	zeroGradient;
	}
	frontAndBackPlanes
	{
		type	empty;
	}
}
