/*
 _____     _____     _____ _____ _____ _____    |  High-order Python FOAM
|  |  |___|  _  |_ _|   __|     |  _  |     |   |  Python Version: 3.10
|     | . |   __| | |   __|  |  |     | | | |   |  Code Version: 0.0
|__|__|___|__|  |_  |__|  |_____|__|__|_|_|_|   |  License: GPLv3
                |___|
*/
FoamFile
{
    version     2.0;
    format      ascii;
    class       volVectorField;
    location    "12.0";
    object     U;
}

dimensions      [0 1 0 0 0 0 0]; 

internalField   nonuniform List<vector>
100
(
(0.018717337221967847 0.02372297403071365 0.0) 
(0.025051747683108024 0.04776908294375975 0.0) 
(0.029443148040747446 0.055559212723491014 0.0) 
(0.036745072379288105 0.05867471358276994 0.0) 
(0.045420265809201395 0.059420859630774495 0.0) 
(0.05470208913437863 0.059396132501287356 0.0) 
(0.06338254889407316 0.05858529587881245 0.0) 
(0.07071328012067062 0.05538997006966678 0.0) 
(0.07512600602895246 0.04746106385680568 0.0) 
(0.08179093355130701 0.023636921662380746 0.0) 
(0.00988845335035059 0.016612027874347294 0.0) 
(0.014217578352520053 0.03366851583026821 0.0) 
(0.022863278224733226 0.04274261092388409 0.0) 
(0.03307610740809379 0.046178753163519895 0.0) 
(0.044320525254016696 0.047267921440897545 0.0) 
(0.05583987179778107 0.04723880873820722 0.0) 
(0.06708876705172466 0.04608837404980774 0.0) 
(0.0772978886191311 0.042590487878321974 0.0) 
(0.08591274915658641 0.033500076351811084 0.0) 
(0.09010260869056806 0.016560533473627376 0.0) 
(0.00787544774513544 0.00982843949863231 0.0) 
(0.009981585547044786 0.022025022163435094 0.0) 
(0.01829027858644648 0.029144009686128645 0.0) 
(0.03000180212998054 0.03265686890352136 0.0) 
(0.043231762850642716 0.033911060351286645 0.0) 
(0.05689856875658091 0.03388438420052484 0.0) 
(0.07011201675189278 0.03258141799050118 0.0) 
(0.08179015913410641 0.029038619993935873 0.0) 
(0.09005464972577212 0.021938759248227205 0.0) 
(0.09215302469435119 0.009811592571236748 0.0) 
(0.007375064862079651 0.005379423023399456 0.0) 
(0.00805146386041451 0.012364485625709985 0.0) 
(0.01602226149211589 0.016900695563108664 0.0) 
(0.028193351482714343 0.01939388942053856 0.0) 
(0.04255014125287444 0.020403041310474775 0.0) 
(0.05753776150609418 0.020383621982025674 0.0) 
(0.07187676108217952 0.01934149118569333 0.0) 
(0.084017519755503 0.016834622127347067 0.0) 
(0.09196312654390486 0.012312807021699472 0.0) 
(0.09259635621999675 0.005365332286865899 0.0) 
(0.007296498549198922 0.0016956051382447644 0.0) 
(0.007380490083190231 0.003998459224918402 0.0) 
(0.01510643162988186 0.005531299659891906 0.0) 
(0.02743126996130277 0.006423557817993886 0.0) 
(0.04224385485834856 0.006799767389298761 0.0) 
(0.05781121908810822 0.006787406239223519 0.0) 
(0.07260999007149747 0.006390675056341647 0.0) 
(0.08491425846919548 0.005489478830022392 0.0) 
(0.09262405592557088 0.003964523111319077 0.0) 
(0.09269805800829566 0.0016803307817289486 0.0) 
(0.007307436156959658 -0.0016679482121141247 0.0) 
(0.007382204190192647 -0.003984798103829808 0.0) 
(0.015106594834054505 -0.005526511209889437 0.0) 
(0.027428288733363154 -0.006423683097612654 0.0) 
(0.042237266652569376 -0.006810582204032397 0.0) 
(0.05780216983568412 -0.006817011479182288 0.0) 
(0.07260027616684185 -0.006441366395681541 0.0) 
(0.08490622317659854 -0.005551157629933369 0.0) 
(0.0926213297504258 -0.004011536663095089 0.0) 
(0.0926885949791349 -0.0016846100741850583 0.0) 
(0.007396294276052053 -0.005356503708246992 0.0) 
(0.008062587527849462 -0.012360586580380618 0.0) 
(0.01602635353866161 -0.01689449273441208 0.0) 
(0.028185084035053667 -0.0193854476733161 0.0) 
(0.04253121673055117 -0.020404848255490993 0.0) 
(0.057511045406577394 -0.020405710285600755 0.0) 
(0.07184685802882357 -0.01938906961360006 0.0) 
(0.08399156649238203 -0.016901169531663 0.0) 
(0.09194488949192721 -0.01237484832079222 0.0) 
(0.09259569226270768 -0.005374948912637518 0.0) 
(0.007940521535881373 -0.009824487512449675 0.0) 
(0.01002672048249302 -0.02203942132618842 0.0) 
(0.018299883394347988 -0.029124658837493704 0.0) 
(0.029990917769250513 -0.032632957678091774 0.0) 
(0.04320558430813226 -0.03389547080232817 0.0) 
(0.0568558607424076 -0.03388937485078001 0.0) 
(0.07005993916226018 -0.03262165778725505 0.0) 
(0.08173907891371497 -0.02911341923091331 0.0) 
(0.0900189778718084 -0.022026520079680784 0.0) 
(0.09206723815043488 -0.009831366430345245 0.0) 
(0.010129554510772971 -0.01664100784985743 0.0) 
(0.014265206064723273 -0.03366162359952664 0.0) 
(0.02287518604840185 -0.04271117871271994 0.0) 
(0.03306346688480154 -0.04613410203772543 0.0) 
(0.04428605693394948 -0.04722288116883615 0.0) 
(0.05578885255551299 -0.04721757193839017 0.0) 
(0.06701930353404915 -0.0461120871832145 0.0) 
(0.07721344187852748 -0.04268056205010324 0.0) 
(0.08580912661514578 -0.03363707117595302 0.0) 
(0.09010232051160665 -0.016614402726714536 0.0) 
(0.018734059553186494 -0.023770686826092347 0.0) 
(0.02509279516761094 -0.04773703166805876 0.0) 
(0.029441275914926946 -0.055514016560301895 0.0) 
(0.03672715429108914 -0.05860502334676393 0.0) 
(0.04539335102295175 -0.059347969559931435 0.0) 
(0.05466741589030061 -0.05934170821264217 0.0) 
(0.06333492954564864 -0.058582773243217416 0.0) 
(0.07062409146854896 -0.055461887634672954 0.0) 
(0.07499911575553048 -0.047692316654900105 0.0) 
(0.08130306210296787 -0.02371680617544064 0.0) 
)
;

boundaryField
{
	bottom
	{
		type	solidTraction;
		value	nonuniform List<vector>
10
(
(0.023158259112073584 0.0295132102678234 0.0) 
(0.029250067125777126 0.05005714394712498 0.0) 
(0.033441586339290175 0.06141557177887516 0.0) 
(0.038884885691669466 0.06481886280040734 0.0) 
(0.04611291460255996 0.06571948134221717 0.0) 
(0.0539915727918385 0.06569222850727695 0.0) 
(0.061231044846978035 0.06472291566017845 0.0) 
(0.06671507773003642 0.06121519780659319 0.0) 
(0.07106976012336041 0.04979129855280838 0.0) 
(0.07745193190942447 0.029379269246464144 0.0) 
)
;
	}
	top
	{
		type	solidTraction;
		value	nonuniform List<vector>
10
(
(0.023138868076487473 -0.029555871817510605 0.0) 
(0.029250700406208502 -0.050034285927198406 0.0) 
(0.03343867114014932 -0.06135994692248476 0.0) 
(0.038866078128325314 -0.06474132250278411 0.0) 
(0.04608951723765511 -0.06563624464716743 0.0) 
(0.053963796543524956 -0.06562867328604215 0.0) 
(0.06118669304477682 -0.06471348545465795 0.0) 
(0.0666230623866828 -0.06130509749041396 0.0) 
(0.07080687884219668 -0.049975454609540206 0.0) 
(0.07687604926680394 -0.029492492307501998 0.0) 
)
;
	}
	left
	{
		type	fixedValue;
		value	uniform (0.0 0.0 0.0);
	}
	right
	{
		type	fixedValue;
		value	uniform (0.1 0.0 0.0);
	}
	frontAndBackPlanes
	{
		type	empty;
	}
}
