/*
 _____     _____     _____ _____ _____ _____    |  High-order Python FOAM
|  |  |___|  _  |_ _|   __|     |  _  |     |   |  Python Version: 3.10
|     | . |   __| | |   __|  |  |     | | | |   |  Code Version: 0.0
|__|__|___|__|  |_  |__|  |_____|__|__|_|_|_|   |  License: GPLv3
                |___|
*/
FoamFile
{
    version     2.0;
    format      ascii;
    class       volScalarField;
    location    "1.0";
    object     T;
}

dimensions      [0 0 0 1 0 0 0]; 

internalField   nonuniform List<scalar>
832
(
48.95303706954286 
44.87856553364074 
8.856131610583942 
36.52958205339719 
55.45000205161611 
-4.8447992481925946 
-15.294911609971633 
20.22000994155091 
0.632954980113928 
1.3951243467156353 
-44.623328751338 
-25.09025992670324 
133.6455441443452 
-3.736856973310918 
3.8197290976888034 
41.96318163548555 
20.52670907482953 
3.350610686350638 
1.4605879632686438 
-15.19413117825137 
-24.952650402726366 
2.9138433899629743 
-1.383390407913262 
46.236881939168505 
2.766732968577973 
-1.8520174909515952 
8.661344221057735 
3.255089806838219 
-1.3422534321660995 
-2.0706245763602165 
0.24864404941434884 
6.0021757050542055 
42.48563048754937 
3.5491849412751972 
1.1035408592028761 
106.40354194000213 
1.0776603154170499 
0.33504917327716466 
-2.292881592575092 
29.649437372024778 
8.037632527089258 
46.24491110192918 
19.330110993310253 
-33.45333274838105 
74.26874547365254 
3.5819625386065197 
1.3669636517190875 
-3.1213856063027947 
-75.88199872311658 
1.1039480779235586 
1.3282147699258111 
7.35344861993414 
-41.768295899443515 
68.46587332208973 
-0.7688681988160267 
1.5480596230677925 
-19.7819781313129 
29.21248288070226 
8.69641018522092 
46.160008510751325 
-1.7414930428736919 
7.332586713436645 
26.303155044400523 
12.293047341839229 
-0.5951725199138359 
14.91475523839327 
-66.4290738903921 
69.93946212073655 
2.5909247991221336 
2.0605734279146453 
94.0519221506388 
-2.016767452340184 
39.55119047927608 
-56.37579771981066 
25.37934326004421 
-16.710850042020954 
-12.424529135345386 
-18.371075005655662 
-11.15431394098606 
3.765167301815767 
-54.828152037572835 
73.22920170430929 
4.455033892095413 
-1.3933660804295525 
-0.6380974513144583 
-99.08088367728243 
-0.16538055660638698 
-8.039406577708016 
-10.645198151485491 
-7.430926523319386 
-80.87774118810962 
1.4466009624428695 
15.390119145888399 
-2.149533177636723 
-2.332034822843248 
-2.258538548185299 
-48.534251268074456 
2.1616753272216402 
-9.120207775416342 
-1.4046048595499312 
-1.223493754005799 
62.847035843499114 
1.8475956007056629 
-5.718373549535447 
1.7494667356243012 
9.718513897679106 
-17.396816596642605 
0.7884139068317164 
2.439858310325479 
-3.798365573355114 
11.324937151555353 
-2.0307135781428416 
13.629580574408754 
41.7983726309293 
49.07545895298642 
21.223581630253353 
0.27945545583399134 
18.116635472628268 
1.502090834030005 
0.6206470888101959 
27.71625746885677 
3.1840051143083485 
20.516421427726957 
14.68845104919227 
15.429599882887542 
6.4111949607149255 
16.332883877495224 
0.1259988336608488 
0.15577975035550443 
46.88030928705733 
8.215844376351162 
98.3467413445487 
83.13777867097812 
5.187462415569894 
20.823742375993398 
5.414649407275267 
-11.201370108565326 
4.163550380740665 
-1.5902362539091839 
0.3007077318953461 
-2.1373852447740327 
0.8696551587334691 
-79.35124971991499 
-42.188177726904854 
-36.07383362381294 
-1.3629773587426133 
9.851945471498821 
23.293688874859154 
1.7367662944154691 
-37.32987279937735 
2.9681969636999264 
82.81964228380419 
0.4866893093060775 
11.704087995716828 
81.65376088328381 
1.4276753014174135 
-6.466836713660525 
35.989899620308925 
94.41956233238896 
61.75944571647215 
-44.58458942467668 
-9.973127747483582 
2.3795171085316116 
-24.115863966890295 
1.2827864253750851 
1.0883118745010434 
4.582528353389946 
1.453399171877599 
-15.61761749011363 
4.5728417407135185 
9.84010019340195 
18.04491964792276 
1.5123382620538008 
10.056187969195367 
6.508650954182442 
9.100609729149038 
-5.049613034836093 
-51.49616035511843 
1.7464270698760695 
2.034647241085349 
-36.18658666405425 
-51.50416414849897 
18.433211808964117 
-4.113157460332903 
-11.458293652991342 
0.951649358247521 
-9.044979879269642 
-1.0542578271987844 
-11.296055864613693 
75.17146028424943 
3.4886689219975895 
2.809477721254316 
2.106126151585425 
26.904431055026986 
16.691297778883015 
6.713912358813085 
-1.23685184393566 
-0.7216960320729697 
20.320603521792876 
57.2534973634277 
-18.901356715800837 
8.410577875822838 
4.047380497388074 
3.7645337477008747 
3.4774179828429244 
5.8461149233012595 
31.972735732096005 
3.085706065110541 
37.34146395430774 
35.693261715376536 
26.086935412379713 
7.489006247371393 
13.317944471704992 
6.704439258870564 
4.408300967782673 
6.594624681082694 
2.577946145204577 
2.684034942266104 
94.89180510151472 
-7.526148961407559 
50.39791142976751 
17.89937902249887 
-0.3066675412109236 
1.3978008429224267 
11.51168297428142 
11.164637267299028 
29.043261557557088 
35.857079962372204 
-2.73972156675242 
-7.7244378772268805 
-9.25737205630869 
1.3135764284915148 
0.53131465592154 
13.361815351841452 
-2.177595059252761 
0.13018435312720456 
0.7527737885986485 
1.4643967563621492 
2.4818688573843453 
1.5132842865542266 
-4.466221181863267 
1.9203655945118563 
-0.9562398568363164 
-12.56835818394542 
4.155247409571439 
2.2761706664626553 
1.1748217134972423 
9.4695528411877 
-6.854337754101299 
-77.25653334361444 
-56.2661826098286 
-28.64532174768941 
4.928765385229748 
-0.11169795269670901 
-5.0046117365137945 
13.308128268563395 
-36.526171352150484 
38.75272396641345 
-16.912463787449898 
-85.8107177750745 
3.2630098489073585 
1.7281339663062738 
-2.733840991458416 
60.75802045990445 
6.393784050627558 
29.88319310883052 
3.3467485642016146 
2.286148399111027 
0.308058018773022 
1.6738588452998642 
2.4517902678944417 
7.606489742201504 
7.748958502061094 
1.300869432973079 
1.7059037968644668 
31.891125446646964 
25.251928519871562 
8.838022049824882 
-12.714108832635269 
9.852152024083003 
-4.21116649515672 
2.9164131579277033 
4.141283951491744 
9.882829239639083 
-3.089342922211375 
14.509321112118329 
8.273873748996644 
-62.1436347758212 
36.05692814706705 
9.434463192476786 
11.175073167655057 
0.25469214033043514 
-7.746848412616225 
-29.53490764031494 
-17.65174023681772 
6.095210793592166 
1.3715706186057464 
-32.42785082662396 
2.8417978204107848 
14.808008693775317 
-2.8028225862661946 
-50.83394160862848 
0.7474662683686047 
4.518558338088929 
-48.51816956582783 
4.790243553431942 
8.83817875645029 
-8.78216831379115 
14.399265610958563 
-1.6432599727276307 
12.60620439171759 
-6.302196122699812 
21.983217608637617 
-1.4942687807728032 
34.313958445176965 
6.613636719827575 
7.426883676990788 
19.836918115914134 
46.48263516900393 
3.5678220869880706 
12.223426191806173 
0.2912334974213696 
0.16697658332045232 
59.75184514537945 
76.60055502895602 
56.95558517667598 
-3.763923372931482 
-5.152233041490787 
-4.113060274625919 
20.533148457623884 
26.60099979796612 
4.914615071633514 
0.8446231281266406 
-6.295155469698616 
-3.096362903022542 
5.296777513975764 
-0.10156158944448626 
11.137110412545534 
11.457412506620917 
3.4819205345909143 
5.3930888024394115 
44.00405437276978 
17.83652093126645 
-5.806002667741914 
7.797768486934447 
-101.60122630847239 
-79.73152442344634 
-2.223212322969893 
48.89631516505062 
2.169788283815958 
-13.900838215622786 
-13.814166170045336 
-21.934853246761897 
-22.826939993430297 
15.998747861266782 
14.65090254597673 
-9.792177584607982 
-6.3646026900967865 
-7.020973835329432 
-4.735116624452768 
1.494700000305584 
2.9862751188507475 
12.204669759884407 
9.157613973472591 
-1.4860785924405842 
67.01143816766826 
-26.622019020991775 
-23.443907938461113 
6.312741550447267 
80.62412931637118 
96.41165422137396 
-19.469287469512217 
-2.8665624474810274 
-2.2981977873010173 
-20.303584322065273 
3.138564597396372 
8.18307290978988 
-10.601365148553086 
-7.464502063643929 
7.445042645625864 
7.259849324846673 
22.530994411560552 
19.205207493496985 
-5.541978435532821 
-5.710499516821703 
1.8386097905148397 
1.6296529617197693 
-0.22727768556551098 
98.10414210664429 
110.19584260511871 
1.6345858856311117 
19.796674495526066 
26.577748501974998 
-3.2174206806132655 
-3.103832748815386 
2.162511174939199 
0.9504326167766332 
25.508970902225062 
-88.57108023472027 
70.10843049117156 
14.858520402923668 
-1.0788079985761907 
-1.5390735873446424 
-1.43477549714031 
0.6186662647628688 
-1.3266039954116673 
-0.9647802240874438 
1.1377995313160345 
15.18482259997768 
10.883692970537108 
5.2137565595181155 
5.653011155450531 
8.276429014697158 
7.8843858783594305 
14.970970497369544 
10.748699103693735 
-0.645066761814953 
14.444688546847427 
8.516591753076051 
-1.7390454285625625 
-1.4614985584154934 
11.455662445515848 
10.69501278158948 
2.7221683694484073 
2.953617071727386 
4.084200245131878 
4.70333200673732 
20.521831721522933 
-0.5684605241001525 
12.23589756506757 
11.244768647477141 
-5.177940337177095 
-4.932830832571971 
2.2480832902501175 
1.990409328705732 
4.306661488007419 
5.0137514403238965 
52.65444284362741 
-18.604672114907814 
-0.008585006661949343 
1.1261721343081719 
2.5206641101596605 
3.223016562639954 
1.4307736541276228 
1.9072151492350555 
-3.843143429092787 
-3.6653959686838182 
-2.1208587496408358 
-3.480103292139717 
1.804039346944737 
61.07788910796656 
34.51233245326702 
34.05125592280399 
3.7228877366895077 
20.799630082823256 
26.48085488614836 
21.243371134207376 
39.54421185757987 
56.759941360041694 
104.3383546109211 
0.8978507677406996 
1.7917793894720027 
5.090097793649042 
2.683845195818321 
1.3779024426655224 
2.2335345892844747 
2.656178913343918 
-31.471894240617427 
-42.90581705376938 
11.315503277571917 
13.005008396771114 
-1.5813794252039186 
-2.9050675637340704 
-11.410486954830892 
-35.47704950025752 
29.045341716708943 
31.20881153193761 
24.265355429773585 
52.39628398024485 
52.222717656567 
-1.9788670833482598 
-1.4288835372513122 
2.227942870537386 
-1.017772625697239 
2.358535777724841 
3.1446564922947995 
0.023761371521951954 
-38.10882315396628 
-34.026458084293544 
30.577889100245418 
42.1342284509229 
-23.499065862551177 
-30.599796920214356 
-20.184264458681625 
-11.328626399153416 
-4.8107611360218225 
-3.7746752183236416 
1.1289777573130775 
1.3695961585578829 
92.75886507340603 
71.39894039929061 
3.6608819995934603 
-13.078328139523135 
-1.4896736930961845 
11.901971777155303 
4.914421035520262 
5.786725807366007 
4.184084826405872 
3.4814628517572306 
-1.7097255330640282 
0.5780086049613496 
0.2687902930566367 
-13.959664004682706 
3.5692816150075095 
5.77193673634429 
6.725759052371717 
-2.812805928125249 
-2.336098473669362 
-16.35245524830573 
-19.742032402447048 
0.95704848370114 
1.1342439700113975 
-3.6750664062122564 
2.193908719038195 
-2.3027922489237547 
2.1300543071274296 
-0.579627612690398 
-0.060165289045524116 
-32.89799533535642 
1.0895289807482542 
0.8927530296378093 
-0.5267807733748302 
4.207564794848709 
5.84159533580112 
68.59934822279338 
76.68423528993384 
7.232031828679139 
0.6368279449319063 
-1.079875134666949 
5.160688873898897 
5.480010979262695 
6.186363256761739 
4.189583970863782 
1.7225351536898168 
-4.441705720294988 
6.793735972736376 
19.4473121137333 
-0.2641545185807389 
-4.240145462573265 
-5.136980716115653 
-63.90840402731081 
-0.26300443786135747 
35.222220494973946 
16.64063017885967 
15.085305082903963 
6.15918233321844 
-60.90992264372821 
-65.07374362934529 
61.33083811055848 
66.96299690617039 
2.428310579788901 
2.754582469648867 
-15.2037114674153 
-10.947404941019263 
17.50435684060133 
12.65378092749893 
2.2927083415924967 
1.6847377605326759 
3.6676621530539566 
2.757099511769491 
2.2907422766676375 
2.180941180229162 
20.057499414889456 
42.655325430185755 
4.177307781727652 
15.365380051573204 
-8.889382930646173 
1.32216564508423 
1.2689888214085405 
-1.6739816501264662 
-0.21105826620499213 
-4.033734317404998 
-3.7878091127795552 
-17.425916093877152 
-26.20009082091325 
21.140158011526015 
26.384725257903508 
-88.91926992647144 
-0.8378062692738305 
-1.2105220639610954 
15.312663576540393 
11.187015402046548 
-46.124599625191664 
0.6467771741320955 
-61.60524481229863 
-68.64498760707785 
-23.79282229224164 
0.03287674742737922 
4.72392313351223 
35.54202824646065 
34.59642892670275 
0.38227368115044286 
-1.067200713221076 
16.054553763350306 
21.994335265719016 
-1.0120004622607126 
-0.7936922254577028 
-0.38291497184756834 
-8.505453851871426 
0.14074293954722503 
30.99932207989652 
26.28484302616723 
1.7882236802464277 
35.723480275384354 
33.89603037133002 
1.456555104424466 
2.248531103563292 
-10.858546480343248 
-13.366149314503893 
-1.7034704461112458 
-29.976220503707573 
0.8141749029708593 
5.33662323419734 
3.914593733498689 
0.3124894005128274 
-56.7151181365874 
-68.09062987974426 
1.8487837590362144 
1.9587551912478973 
41.103638035171315 
40.610655886615795 
59.98447593636253 
51.8484762081166 
21.67033351366435 
1.6837768788082539 
1.7964670441917363 
1.0965738757008294 
-41.110560720965594 
-36.290389800951885 
22.442623691046236 
23.70602831921257 
-8.198423625402881 
-0.6936406723356338 
-0.8652903201174561 
5.308860806091451 
4.583822670767976 
-8.751627173235686 
-10.21084275890347 
8.818765123404312 
-0.479892088447572 
0.722950290465987 
1.7953953635336855 
2.1219220758344712 
3.8104925155843423 
4.428490084553374 
-0.28743789325936686 
-0.10911644439165649 
-7.5384855448342645 
-9.319415162392357 
-111.94052132153361 
0.5377185876496648 
0.6382211297347165 
-7.133431990287556 
-6.587613754708168 
-6.830929134613192 
5.356270335745132 
4.335475832731485 
7.012602798066371 
8.411339072472686 
4.127780513929087 
5.6583629914483 
5.634100159847447 
23.41220997964047 
30.251865073517948 
25.768829443912754 
31.284057858482072 
0.2643261431654795 
15.2397902584887 
16.289582423826346 
30.894505788181913 
52.32715906923421 
-1.0221862019698842 
35.416124566040544 
65.70815773120539 
45.533240664649405 
0.563499389113054 
1.08859110901306 
112.22800793860772 
-6.305908224671181 
-4.953359899341038 
-5.616703629233063 
0.9718295932442355 
0.3107768965293917 
-3.0573323294922328 
-59.81971727482474 
-13.596711527807383 
-1.8439820011080692 
4.564241748243606 
-28.770023172433188 
1.0111260885084408 
-46.68061242764951 
-52.59787177454967 
0.8210051960158133 
1.522479937038084 
2.5751814327814797 
-77.11388451117728 
-67.5498753807049 
79.80354392672793 
4.233078552796204 
8.426843894791501 
1.144406217751816 
129.93476244895345 
110.83883222866305 
-99.25641075834169 
-88.04214062994454 
-1.1682990054136893 
-1.0758329782662455 
-1.1396298330980592 
0.5561563667775775 
5.538144419603393 
3.3751721612195085 
7.468815891182359 
3.302347730658836 
1.9666024864726 
4.281333717061709 
-2.7531734893161706 
-2.372211641381709 
-2.1258543668514434 
-4.434254815565647 
-3.8925556328934516 
-3.506819166308407 
0.9161398977363073 
0.4064473518727728 
0.6678673647693119 
72.00436905481344 
91.87814684592135 
93.48397104139812 
123.9825011283992 
136.30596488586565 
125.54984087422197 
14.764242605123723 
5.608795663269317 
9.883068662774631 
1.0943331717141056 
1.1634043927464222 
-129.3754718229228 
-115.55201478378798 
104.58114245994904 
84.33731743539697 
1.014499166779299 
0.8206212800913205 
0.802673017668085 
-41.46229532276737 
-36.689428327990036 
-32.988712138027594 
0.9681687686750561 
0.7543562237444772 
0.7235130867396484 
-0.2354737333918853 
-0.09390713681102066 
52.913339552213024 
64.27933802533113 
-92.67702958846843 
-69.56611930898144 
37.48106832041044 
19.672134740203084 
9.297559412034378 
7.367485823695937 
14.654489996105555 
0.304655758314842 
0.5024114724407424 
0.40700959775688983 
0.5968653389750389 
0.4299435455242218 
0.9530149577459636 
0.5275656876233423 
1.2586068732642335 
-31.20421741906691 
-43.59880295623407 
2.6695873569576487 
19.36236586936283 
-13.682037557904739 
-15.633441789686442 
-17.433469959121457 
-26.02982091913016 
-22.4762963095157 
-20.21194566232421 
-95.76073078574754 
-113.57784561638081 
-108.14026341985341 
0.06794047402600174 
0.33457022922774504 
-0.7278515108800018 
-0.3733754446680872 
-0.48834072566893133 
-0.6522366127051715 
1.0599370866953006 
1.1812493845560101 
-1.686432702762979 
-1.4436789990287997 
-1.3159937005463869 
0.5153515127142961 
0.2428642876246636 
-12.32967004923721 
-10.60472035174422 
-9.723143566835274 
-0.8922139544018686 
-0.8814955075329077 
0.13853963608841882 
0.20186940350508473 
0.3054089176270992 
0.18939187451036135 
0.4132307304303712 
1.1478554454838625 
1.0243434157299633 
1.11892843161949 
127.05580683612305 
107.10852050688932 
122.45222686849624 
-111.76804590356075 
-126.39788099061622 
-137.55348477715967 
-139.47281738418272 
-128.81687044047592 
-6.999051985251455 
2.405774583466593 
0.9435891032863205 
1.8387103769001685 
0.20186522547551008 
-8.10358180834038 
-8.96447278868482 
-1.0456342433318517 
)
;

boundaryField
{
	bottom
	{
		type	analyticalFixedValue;
		value	uniform 0;
	}
	top
	{
		type	analyticalFixedValue;
		value	uniform 0;
	}
	left
	{
		type	analyticalFixedValue;
		value	uniform 0;
	}
	right
	{
		type	analyticalFixedValue;
		value	uniform 0;
	}
	frontAndBackPlanes
	{
		type	empty;
		value	uniform 0;
	}
}
