/*
 _____     _____     _____ _____ _____ _____    |  High-order Python FOAM
|  |  |___|  _  |_ _|   __|     |  _  |     |   |  Python Version: 3.10
|     | . |   __| | |   __|  |  |     | | | |   |  Code Version: 0.0
|__|__|___|__|  |_  |__|  |_____|__|__|_|_|_|   |  License: GPLv3
                |___|
*/
FoamFile
{
    version     2.0;
    format      ascii;
    class       volScalarField;
    location    "26.0";
    object     pCorr;
}

dimensions      [0 0 0 1 0 0 0]; 

internalField   nonuniform List<scalar>
100
(
3332.2213007539863 
-6386.72453946348 
-4390.472327009561 
-1427.2223016496719 
91.45209270339397 
79.38702936511606 
-1438.622308508551 
-4344.047034065312 
-5913.848626990224 
2904.4678501472226 
14459.357894018482 
-977.3237303748073 
-2098.005079916381 
1347.7307426926977 
3456.2407688851113 
3460.9717531899514 
1385.6098576000431 
-1953.8511709778131 
-898.3449079386012 
14245.657708399667 
13133.363737561695 
-2459.967964729076 
-5582.956045898299 
-3071.8971708880435 
-1149.5109514684762 
-1142.0095714277566 
-3037.959857609863 
-5525.074931869607 
-2424.930431598135 
13041.950160376353 
13080.930324342822 
-4238.03904134305 
-8534.948054839955 
-7143.062599999068 
-5708.009524057044 
-5701.958368567616 
-7123.04840389411 
-8507.032306924846 
-4230.5851313958365 
13079.392265193399 
13118.739846898388 
-4920.470004787163 
-10034.424132164364 
-9247.23597344314 
-8136.069261702439 
-8131.386258350712 
-9233.164098162517 
-10016.244090287852 
-4908.675931248307 
13120.001994327788 
13156.223154790183 
-4918.531387793017 
-10037.939490993997 
-9249.296162640307 
-8136.18642205774 
-8132.412675722814 
-9237.397435209867 
-10024.40111631606 
-4915.098413492089 
13144.959175134645 
13192.67069207607 
-4229.510614197717 
-8549.731599657503 
-7148.735099441515 
-5707.509756035179 
-5704.106099162559 
-7138.832674799038 
-8540.705753548156 
-4247.964286602691 
13153.377446139908 
13352.096195938617 
-2462.9057419158044 
-5619.073834457392 
-3083.988806967171 
-1146.3769214262518 
-1144.8190175502307 
-3073.3812553936514 
-5603.833698894172 
-2492.7481694261687 
13192.093020501603 
14765.136903646633 
-1018.3325989972402 
-2134.234071010679 
1334.1373199688462 
3458.254574761071 
3459.2473984370577 
1342.075651500894 
-2119.137563422849 
-1016.9230111063655 
14443.80520851844 
3305.7999737354885 
-6325.512379441522 
-4390.894858697579 
-1409.8802070210036 
120.69048600448588 
112.03997023025968 
-1433.915805259606 
-4416.068046744941 
-6408.731642491362 
3305.734267665574 
)
;

boundaryField
{
	bottom
	{
		type	fixedValue;
		value	uniform 0.0;
	}
	top
	{
		type	fixedValue;
		value	uniform 0.0;
	}
	left
	{
		type	zeroGradient;
	}
	right
	{
		type	zeroGradient;
	}
	frontAndBackPlanes
	{
		type	empty;
	}
}
