/*
 _____     _____     _____ _____ _____ _____    |  High-order Python FOAM
|  |  |___|  _  |_ _|   __|     |  _  |     |   |  Python Version: 3.10
|     | . |   __| | |   __|  |  |     | | | |   |  Code Version: 0.0
|__|__|___|__|  |_  |__|  |_____|__|__|_|_|_|   |  License: GPLv3
                |___|
*/
FoamFile
{
    version     2.0;
    format      ascii;
    class       volVectorField;
    location    "26.0";
    object     U;
}

dimensions      [0 1 0 0 0 0 0]; 

internalField   nonuniform List<vector>
100
(
(0.01799762724977672 0.030433404898365643 0.0) 
(0.022496214669837002 0.04798953836282533 0.0) 
(0.028507184839649067 0.049549982718502375 0.0) 
(0.03682234266290881 0.05040252935030552 0.0) 
(0.04563040027113347 0.05069382042566308 0.0) 
(0.05456338316328764 0.05068845016974288 0.0) 
(0.06338091697491346 0.05036439113890572 0.0) 
(0.07173780521818167 0.049449375694426624 0.0) 
(0.07771573157168256 0.047603409212707046 0.0) 
(0.08277724338503314 0.03018662788632543 0.0) 
(0.013412588865186382 0.020372345282480758 0.0) 
(0.015760956103280543 0.035733106454480044 0.0) 
(0.024680031684889414 0.041238041931587074 0.0) 
(0.0347354741080075 0.04269197256161689 0.0) 
(0.044993813111583354 0.04310772067740972 0.0) 
(0.05520521646475258 0.04308682569755159 0.0) 
(0.06547817402334416 0.042617353930837876 0.0) 
(0.07554422012533749 0.04107558463792339 0.0) 
(0.08445249364227377 0.03548758478652145 0.0) 
(0.08661738129107001 0.020286155144003226 0.0) 
(0.010596034146717287 0.011950358311986313 0.0) 
(0.012104880798301031 0.024168784734035408 0.0) 
(0.021057725003902694 0.02955954402273973 0.0) 
(0.03246643323716211 0.03164980086696452 0.0) 
(0.04421656199431932 0.03224197261801331 0.0) 
(0.05594083255444288 0.03221549425689561 0.0) 
(0.06768175196924338 0.031568302161291945 0.0) 
(0.07906024170831451 0.029427070234372677 0.0) 
(0.0879525713720899 0.0240438151595431 0.0) 
(0.0894622461150539 0.011920779635693069 0.0) 
(0.010738312400283825 0.006703592145128426 0.0) 
(0.01018647131472597 0.013900892282057424 0.0) 
(0.018931109952365348 0.017730619716854953 0.0) 
(0.03085841343650217 0.019420351219503904 0.0) 
(0.04362519082517206 0.019974384297885995 0.0) 
(0.05647616954254035 0.019952515923008195 0.0) 
(0.06922641598336937 0.01935838261191542 0.0) 
(0.08111937183504786 0.017646853357941434 0.0) 
(0.08983135197208203 0.013830867934128365 0.0) 
(0.08920599036347023 0.006685972400414393 0.0) 
(0.010941998875031389 0.0021496964091438447 0.0) 
(0.009571962461731223 0.004565415541392901 0.0) 
(0.017988455188252626 0.005894636718456529 0.0) 
(0.030091820119860065 0.006534862822861159 0.0) 
(0.043321534518045116 0.006752899078519588 0.0) 
(0.05673627535471084 0.006738588622537418 0.0) 
(0.06995121769589588 0.006496079446099833 0.0) 
(0.08203121242621379 0.00584378260646007 0.0) 
(0.09042982149827843 0.0045248433208644285 0.0) 
(0.08906215533776286 0.0021323991398342484 0.0) 
(0.010970869179141937 -0.0021178403575435713 0.0) 
(0.009575840664295359 -0.0045584976936412095 0.0) 
(0.01799155604632859 -0.005906251163006965 0.0) 
(0.030090719013171417 -0.0065556417842967795 0.0) 
(0.043314161201667124 -0.006786874211958966 0.0) 
(0.056723065904022436 -0.006794322871434928 0.0) 
(0.06993485911626164 -0.006576030716271546 0.0) 
(0.08201604159645631 -0.005934642411418808 0.0) 
(0.09042290580369824 -0.004591064974545438 0.0) 
(0.08903329712869101 -0.002139255673791053 0.0) 
(0.010765798350095803 -0.006675449398360972 0.0) 
(0.010207973035793282 -0.013901539254297667 0.0) 
(0.018945074745083456 -0.01773741453785486 0.0) 
(0.030856066427187315 -0.01942818506611314 0.0) 
(0.04360382262967456 -0.01999465344099307 0.0) 
(0.05643629010655072 -0.019996716152180793 0.0) 
(0.06917481778207372 -0.01943412394188659 0.0) 
(0.08107103539203105 -0.017745217200684307 0.0) 
(0.08979400009938003 -0.013918185410480899 0.0) 
(0.0892027988761161 -0.006700985254820432 0.0) 
(0.01071494212816394 -0.011945474441271921 0.0) 
(0.012177481878408074 -0.024184252398961714 0.0) 
(0.021085918320492874 -0.029544508167370916 0.0) 
(0.0324653232988021 -0.03163225037801707 0.0) 
(0.0441845582079171 -0.03223424554570634 0.0) 
(0.05587576161128943 -0.032232626718088374 0.0) 
(0.06759088189607244 -0.03162880888985632 0.0) 
(0.07896303220564507 -0.02953884203202671 0.0) 
(0.0878858899222843 -0.024166233811711364 0.0) 
(0.08930368689788838 -0.011955983729362156 0.0) 
(0.013786443530108692 -0.020420751516166957 0.0) 
(0.015840859936006153 -0.03571421091082857 0.0) 
(0.024715098529983503 -0.04119383497758277 0.0) 
(0.03473338311183119 -0.042637950991024756 0.0) 
(0.0449539866674606 -0.043056867285025155 0.0) 
(0.055125166024120834 -0.04305962529521665 0.0) 
(0.0653555328022271 -0.04263864103623357 0.0) 
(0.0753914539714787 -0.04118649761948837 0.0) 
(0.08426607260427776 -0.0357002087133833 0.0) 
(0.08659915769016793 -0.020376340047821847 0.0) 
(0.01801336317631425 -0.030511396383285035 0.0) 
(0.022567438480492984 -0.047931707524176526 0.0) 
(0.02852275121898602 -0.04948244556865072 0.0) 
(0.036813578651915105 -0.05031246084822701 0.0) 
(0.045593125040986594 -0.05060404861523532 0.0) 
(0.05449333858978023 -0.05061141655354395 0.0) 
(0.06327603206295329 -0.05033132422130432 0.0) 
(0.07156738364871693 -0.04948729960673077 0.0) 
(0.07755337139895177 -0.04792882377319936 0.0) 
(0.08201844846714937 -0.030415845450869734 0.0) 
)
;

boundaryField
{
	bottom
	{
		type	solidTraction;
		value	nonuniform List<vector>
10
(
(0.020552442934230343 0.036345592913349295 0.0) 
(0.025633976350659848 0.04955547397049028 0.0) 
(0.030950666106475767 0.053867960368302624 0.0) 
(0.03797734679295745 0.05423502148762108 0.0) 
(0.045982649244394304 0.05444465431065796 0.0) 
(0.05421057739509318 0.05444171986027704 0.0) 
(0.06222961102546004 0.054207212301187566 0.0) 
(0.06928929476712796 0.05373355826798056 0.0) 
(0.07480225759211753 0.04921963161544704 0.0) 
(0.08035139726894368 0.03602422340858389 0.0) 
)
;
	}
	top
	{
		type	solidTraction;
		value	nonuniform List<vector>
10
(
(0.020509988357107545 -0.03641406945207225 0.0) 
(0.025640354727332355 -0.04951635339433532 0.0) 
(0.030963620217301143 -0.0537842870859947 0.0) 
(0.03796427557682321 -0.05413199509321526 0.0) 
(0.045945504489803675 -0.05433700761349289 0.0) 
(0.05414494355878137 -0.05434639125423898 0.0) 
(0.06212493278481126 -0.05415341919697577 0.0) 
(0.06912774667304862 -0.05379676775261742 0.0) 
(0.07442188265173784 -0.04949381716842629 0.0) 
(0.07947471072924639 -0.036315785242328286 0.0) 
)
;
	}
	left
	{
		type	fixedValue;
		value	uniform (0.0 0.0 0.0);
	}
	right
	{
		type	fixedValue;
		value	uniform (0.1 0.0 0.0);
	}
	frontAndBackPlanes
	{
		type	empty;
	}
}
