/*
 _____     _____     _____ _____ _____ _____    |  High-order Python FOAM
|  |  |___|  _  |_ _|   __|     |  _  |     |   |  Python Version: 3.10
|     | . |   __| | |   __|  |  |     | | | |   |  Code Version: 0.0
|__|__|___|__|  |_  |__|  |_____|__|__|_|_|_|   |  License: GPLv3
                |___|
*/
FoamFile
{
    version     2.0;
    format      ascii;
    class       volScalarField;
    location    "23.0";
    object     pCorr;
}

dimensions      [0 0 0 1 0 0 0]; 

internalField   nonuniform List<scalar>
100
(
4476.3765611592235 
-5740.793897844995 
-3540.040775383409 
545.6588931244574 
2925.351701986188 
2905.030290474079 
516.7616146799686 
-3509.0526275529987 
-5293.665498698516 
4032.031420813246 
18981.87339544288 
3270.2879507506555 
2773.805359494889 
7722.046956653234 
10963.535720325342 
10958.458341419697 
7735.164532941935 
2884.7908880726072 
3311.1159290612486 
18733.569228859375 
21314.11758827755 
5766.862567363063 
3261.247122635691 
7041.199385272152 
9960.96338402357 
9956.610015526652 
7043.409328850155 
3276.2838155191257 
5756.058688019231 
21183.511024935127 
24386.315650535533 
6894.508030083405 
2805.6943577403636 
4998.110374105877 
7129.692584849884 
7124.240478376617 
4986.917942193138 
2790.785895781463 
6854.697073804707 
24341.82941864962 
25977.654647663454 
7633.434292526457 
2427.8008898851326 
3703.1041558294937 
5313.7462955922765 
5307.520638911086 
3687.3774412992516 
2404.3152356345613 
7598.92221162984 
25934.34078349592 
26015.636016291955 
7634.8543694838345 
2422.6897460184205 
3698.430207697709 
5310.5682186186605 
5303.284547613741 
3680.1446725718724 
2394.1439240096943 
7592.015425488284 
25959.808876184063 
24499.227963613805 
6903.491976256663 
2786.5850171289767 
4984.811232365286 
7121.578783111025 
7113.063308718711 
4962.568210843701 
2751.6314824597166 
6837.479832455818 
24418.450691112957 
21537.078121690254 
5764.7175219957535 
3218.280028196454 
7017.556908752681 
9952.345741399397 
9941.355812177402 
6995.352704269029 
3189.4753667463 
5691.029404167303 
21340.51604676197 
19291.638493438768 
3229.0282996935357 
2729.352214930535 
7697.099040275706 
10953.716456543541 
10945.05694689614 
7678.300115380309 
2710.4515628875506 
3200.4784746623977 
18949.51042034772 
4457.226448614299 
-5680.649121221581 
-3547.7341498615096 
554.5674429027451 
2949.1703159238336 
2932.477567544425 
511.78350386315856 
-3590.650581559634 
-5777.420114340003 
4451.088043451472 
)
;

boundaryField
{
	bottom
	{
		type	fixedValue;
		value	uniform 0.0;
	}
	top
	{
		type	fixedValue;
		value	uniform 0.0;
	}
	left
	{
		type	zeroGradient;
	}
	right
	{
		type	zeroGradient;
	}
	frontAndBackPlanes
	{
		type	empty;
	}
}
