/*
 _____     _____     _____ _____ _____ _____    |  High-order Python FOAM
|  |  |___|  _  |_ _|   __|     |  _  |     |   |  Python Version: 3.10
|     | . |   __| | |   __|  |  |     | | | |   |  Code Version: 0.0
|__|__|___|__|  |_  |__|  |_____|__|__|_|_|_|   |  License: GPLv3
                |___|
*/
FoamFile
{
    version     2.0;
    format      ascii;
    class       volVectorField;
    location    "31.0";
    object     U;
}

dimensions      [0 1 0 0 0 0 0]; 

internalField   nonuniform List<vector>
100
(
(0.017636357149118997 0.03183073136705327 0.0) 
(0.021896692865427246 0.048045555152584615 0.0) 
(0.02845382892947992 0.049284402931187445 0.0) 
(0.03696432339242459 0.05063261134086287 0.0) 
(0.045721329879063466 0.05138133237565409 0.0) 
(0.05449321165295316 0.05137194538048067 0.0) 
(0.06326256496479704 0.050586046694048724 0.0) 
(0.07182067869327717 0.049182763904107904 0.0) 
(0.078319521386439 0.04763199415416036 0.0) 
(0.08319494048088273 0.03151977485707917 0.0) 
(0.013784597755692895 0.02098837588568053 0.0) 
(0.015501316083494662 0.035909144047442165 0.0) 
(0.024520755460807293 0.041077448997121686 0.0) 
(0.034698428180108626 0.042649898720770116 0.0) 
(0.0449975697465818 0.0432607912651586 0.0) 
(0.05522603918413412 0.0432375639075637 0.0) 
(0.06553914116430777 0.04256900630825562 0.0) 
(0.07572463632923151 0.040902523718056624 0.0) 
(0.08473379859167747 0.0356340434375541 0.0) 
(0.08625854240043071 0.02089098741050032 0.0) 
(0.010604269232058693 0.012101849672681434 0.0) 
(0.011701424578676834 0.02416595816661049 0.0) 
(0.020831259917431212 0.029335130018963373 0.0) 
(0.03240100681447653 0.03138129031543456 0.0) 
(0.044213445404287705 0.03201647598340432 0.0) 
(0.05596643543789406 0.03198798439414301 0.0) 
(0.06776875141579487 0.03129325637159998 0.0) 
(0.07930488631994229 0.029189732231604898 0.0) 
(0.08836512696678077 0.024026174257170456 0.0) 
(0.08945819305939927 0.012068000278571864 0.0) 
(0.010675701404204279 0.006741769913401785 0.0) 
(0.009608097012395435 0.013823953454099544 0.0) 
(0.018595347496276043 0.017537715302717808 0.0) 
(0.030748813214532187 0.01916311721480052 0.0) 
(0.0436118732753054 0.0197053128946189 0.0) 
(0.05650930249501097 0.019681905693495608 0.0) 
(0.0693537838172236 0.019096302207864034 0.0) 
(0.08146786900211428 0.017446383441921582 0.0) 
(0.09041609011396577 0.013746619171933221 0.0) 
(0.08927172937176425 0.0067231194173253996 0.0) 
(0.010832663202568333 0.002155928247067879 0.0) 
(0.008918397662052418 0.0045315292790149946 0.0) 
(0.01758441731354419 0.0058202642547214994 0.0) 
(0.029946754597193672 0.006435451352748487 0.0) 
(0.04329795363669544 0.0066442476788582195 0.0) 
(0.05677681033648061 0.006629339945753235 0.0) 
(0.07011070048578 0.006394851485750474 0.0) 
(0.08244497766953039 0.005766596609318511 0.0) 
(0.09108764336344032 0.004488208429691979 0.0) 
(0.08917141975570683 0.0021374226076068953 0.0) 
(0.010861011813068498 -0.0021193950571358816 0.0) 
(0.008921463054105514 -0.00452121198318125 0.0) 
(0.01758689583290862 -0.005828290227934504 0.0) 
(0.029945108044995065 -0.006451419575732722 0.0) 
(0.04328964807155382 -0.00667234870902584 0.0) 
(0.05676206741002864 -0.0066792503983189614 0.0) 
(0.07009246441150797 -0.006470464712657997 0.0) 
(0.08242828329169691 -0.005855311783312786 0.0) 
(0.09108024870453535 -0.004553295478136199 0.0) 
(0.08914282254625999 -0.002141673710541331 0.0) 
(0.010705573904545186 -0.006709304378955554 0.0) 
(0.009626904127939866 -0.013821967338704068 0.0) 
(0.018607757325388136 -0.01754132746998459 0.0) 
(0.030744958823109892 -0.0191657256575229 0.0) 
(0.04358767626145814 -0.01971872683831592 0.0) 
(0.05646470383381596 -0.01971904375796698 0.0) 
(0.06929602506416092 -0.019166998317484186 0.0) 
(0.08141440260156356 -0.017543249442549192 0.0) 
(0.09037703301216046 -0.013834623541633964 0.0) 
(0.08926594100555861 -0.006736268615584796 0.0) 
(0.010722456406027338 -0.012095411622645151 0.0) 
(0.011771723992297981 -0.024181111664126207 0.0) 
(0.020857431411574506 -0.02931686239588496 0.0) 
(0.03239730921738306 -0.03135716022651269 0.0) 
(0.04417659556846087 -0.031999763332851885 0.0) 
(0.055893248348745574 -0.03199508128153333 0.0) 
(0.06766698591756343 -0.03134546913616158 0.0) 
(0.07919637355453128 -0.029300263527117735 0.0) 
(0.08829374410135739 -0.024152980766709024 0.0) 
(0.08929841303423953 -0.01210613838897891 0.0) 
(0.014175881846823023 -0.021047409912924923 0.0) 
(0.015577695887647642 -0.03589032804331143 0.0) 
(0.02455252203350482 -0.041028017352990935 0.0) 
(0.03469112052286279 -0.04258669662151539 0.0) 
(0.04494965691237213 -0.043198003167285004 0.0) 
(0.055134707616779695 -0.043196143741584564 0.0) 
(0.0654016361763014 -0.04257480678047189 0.0) 
(0.07555632608106681 -0.04100358131415418 0.0) 
(0.08453016480770376 -0.035860837646819736 0.0) 
(0.08622788908893352 -0.020989880955260266 0.0) 
(0.017647947962347144 -0.031923339868267675 0.0) 
(0.021964451832691453 -0.04798844872305302 0.0) 
(0.02846109848650608 -0.04921027276457345 0.0) 
(0.03694663951352066 -0.05053093427129302 0.0) 
(0.04567269056285855 -0.051278192781657204 0.0) 
(0.054408105095255316 -0.051277727556910055 0.0) 
(0.0631399368279481 -0.05052999548209866 0.0) 
(0.07162959708582271 -0.0491902987840353 0.0) 
(0.07816395028388412 -0.04796210733053254 0.0) 
(0.08238898003259226 -0.03180624970477111 0.0) 
)
;

boundaryField
{
	bottom
	{
		type	solidTraction;
		value	nonuniform List<vector>
10
(
(0.01996744748347863 0.03792151245259813 0.0) 
(0.025062937349858337 0.04995475589614199 0.0) 
(0.030851209261399008 0.053767066084030105 0.0) 
(0.03815067609154415 0.05460808084923605 0.0) 
(0.046090927620279214 0.05531507236889437 0.0) 
(0.05412204325625152 0.05530828520643658 0.0) 
(0.062080655595262074 0.05457412264416928 0.0) 
(0.06941374057274315 0.053628463810849396 0.0) 
(0.07539657737286179 0.0495839518861987 0.0) 
(0.08099607078075577 0.03752481680856687 0.0) 
)
;
	}
	top
	{
		type	solidTraction;
		value	nonuniform List<vector>
10
(
(0.01991741289879976 -0.038006476229301416 0.0) 
(0.025061910092624203 -0.04991899076685775 0.0) 
(0.030854612241213705 -0.05367696661115246 0.0) 
(0.03812639471680023 -0.05449313743621233 0.0) 
(0.04604040097441182 -0.05519266939612385 0.0) 
(0.05403965852814036 -0.055193361058156025 0.0) 
(0.061956556959281046 -0.05449229499043409 0.0) 
(0.06923727333419395 -0.05366121531587052 0.0) 
(0.07500598667111867 -0.04986827533700352 0.0) 
(0.08007228574177673 -0.03788143486776413 0.0) 
)
;
	}
	left
	{
		type	fixedValue;
		value	uniform (0.0 0.0 0.0);
	}
	right
	{
		type	fixedValue;
		value	uniform (0.1 0.0 0.0);
	}
	frontAndBackPlanes
	{
		type	empty;
	}
}
