/*
 _____     _____     _____ _____ _____ _____    |  High-order Python FOAM
|  |  |___|  _  |_ _|   __|     |  _  |     |   |  Python Version: 3.10
|     | . |   __| | |   __|  |  |     | | | |   |  Code Version: 0.0
|__|__|___|__|  |_  |__|  |_____|__|__|_|_|_|   |  License: GPLv3
                |___|
*/
FoamFile
{
    version     2.0;
    format      ascii;
    class       volScalarField;
    location    "75.0";
    object     p;
}

dimensions      [0 0 0 1 0 0 0]; 

internalField   nonuniform List<scalar>
100
(
395755.9530625519 
-142999.49297579355 
-201056.88592698317 
-151843.0616582621 
-131860.8453159122 
-132130.0270573398 
-152121.77107531397 
-198813.9796718436 
-115547.41581634308 
372928.1405424494 
1323505.6898417573 
386098.9577115729 
154678.76663795646 
175593.69105097663 
199439.126501443 
199768.46760240867 
177433.51941977668 
161932.56301282308 
390378.713265205 
1312038.634780799 
1438000.3554267557 
521779.50447718176 
215262.12016659553 
207356.77646782424 
224633.50389618048 
224878.4425797645 
208601.77988501117 
217420.4676205803 
522636.14223780256 
1431414.560393176 
1600596.5160043747 
585430.7803407027 
264612.31100955256 
237525.03519488097 
247623.9402192673 
247680.70976410058 
237775.50417157632 
264818.6576324692 
584287.1807146351 
1598513.0796312825 
1680942.4309396688 
637823.4197007319 
299973.4951116971 
266395.29817036615 
272485.4315828957 
272428.449594024 
266260.28612276836 
299597.7706858183 
636845.8628333523 
1679091.8263094611 
1682920.7702635631 
637756.9333962 
299558.73223966215 
266047.13982888847 
272233.2888396998 
272166.3743510115 
265919.4718713188 
299153.689935456 
636604.6325399423 
1680740.0354170268 
1606667.1242916917 
585261.3859646011 
263176.96861554915 
236553.53491801553 
246906.87248369862 
246922.54729140096 
236642.19136501738 
263089.5853853664 
583662.6635049882 
1603428.7132162927 
1450115.049483765 
520816.5624332527 
212388.25550420958 
205697.13939468213 
223500.8869618198 
223647.67806478677 
206340.72902766365 
213581.83220681894 
519547.1904981198 
1440927.4106758435 
1341365.362721459 
383233.0777453881 
151886.64201838622 
173761.134179086 
198245.86301677124 
198454.86529323395 
174870.83449946143 
153807.16946752774 
384604.86072869675 
1323135.863459416 
393906.5213981538 
-139498.48804398917 
-201282.4798978377 
-151265.81334561232 
-131078.54862779003 
-131216.41731163708 
-151605.72194807843 
-201286.7820518966 
-143111.90569571356 
394636.9911479075 
)
;

boundaryField
{
	bottom
	{
		type	pressureTraction;
	}
	top
	{
		type	pressureTraction;
	}
	left
	{
		type	fixedValueFromZeroGrad;
	}
	right
	{
		type	fixedValueFromZeroGrad;
	}
	frontAndBackPlanes
	{
		type	empty;
	}
}
