/*
 _____     _____     _____ _____ _____ _____    |  High-order Python FOAM
|  |  |___|  _  |_ _|   __|     |  _  |     |   |  Python Version: 3.10
|     | . |   __| | |   __|  |  |     | | | |   |  Code Version: 0.0
|__|__|___|__|  |_  |__|  |_____|__|__|_|_|_|   |  License: GPLv3
                |___|
*/
FoamFile
{
    version     2.0;
    format      ascii;
    class       volScalarField;
    location    "75.0";
    object     pCorr;
}

dimensions      [0 0 0 1 0 0 0]; 

internalField   nonuniform List<scalar>
100
(
-812.4232560653405 
-1202.6897006929694 
-312.1984158061018 
-117.8374943459674 
-441.73650365839023 
-442.657517748059 
-137.96558915843204 
-336.54672391320014 
-980.0528605838907 
-935.2697031508983 
3650.5565239323764 
-723.198504482405 
81.98971158379885 
718.863779063215 
642.0935110551129 
638.3074490086001 
708.8343549236146 
106.88285723327022 
-685.3084518221672 
3593.257280997791 
3401.27072103364 
-1124.4866258413085 
-604.3204340586425 
248.9368064868951 
292.0472313683225 
289.92546184357104 
246.37747453808234 
-600.7620878365708 
-1120.0007054204405 
3331.7827829842945 
3693.9287425786447 
-1499.1401095372958 
-941.7223958368415 
-1.395933430563378 
117.81285683360412 
117.05616743478322 
-2.6746743888785574 
-943.5042370489882 
-1510.3565980487704 
3651.0509783491952 
3896.562445769787 
-1491.9146225854456 
-964.7198107033712 
26.837388717641694 
175.88855960242543 
175.5962301373413 
26.449673131005518 
-966.2323199145271 
-1501.1406865959834 
3859.8453343613687 
3905.9244837136594 
-1495.0841068867805 
-967.5995124597054 
25.84953188463913 
175.6207837935201 
175.32181187328098 
26.20432414612209 
-967.4414782040211 
-1502.501842566798 
3873.950879138533 
3723.8158957987976 
-1513.7759401929043 
-953.0025783750411 
-3.840893135830156 
116.80687623970249 
116.54558794688747 
-2.4952712014083644 
-948.0852295450245 
-1513.9618749303681 
3690.414318740648 
3463.196261236433 
-1150.3702751206774 
-628.0403225040177 
241.6651391698075 
287.4338982859033 
286.76983409024086 
245.86199462768354 
-609.2689881061877 
-1137.8113474088998 
3401.355154164112 
3772.5765484939548 
-763.9481720346512 
56.88734511904804 
707.1103523012201 
631.9004912745054 
630.8665440351606 
711.65585782575 
81.02987757135138 
-729.9716126159049 
3642.3916078436523 
-850.1838272072733 
-1184.8136267182851 
-313.0582169706767 
-109.21487564221373 
-437.3729105647078 
-438.89748208578806 
-111.46257528694262 
-310.40015048498236 
-1199.9227062925886 
-821.9362143462824 
)
;

boundaryField
{
	bottom
	{
		type	fixedValue;
		value	uniform 0.0;
	}
	top
	{
		type	fixedValue;
		value	uniform 0.0;
	}
	left
	{
		type	zeroGradient;
	}
	right
	{
		type	zeroGradient;
	}
	frontAndBackPlanes
	{
		type	empty;
	}
}
