/*
 _____     _____     _____ _____ _____ _____    |  High-order Python FOAM
|  |  |___|  _  |_ _|   __|     |  _  |     |   |  Python Version: 3.10
|     | . |   __| | |   __|  |  |     | | | |   |  Code Version: 0.0
|__|__|___|__|  |_  |__|  |_____|__|__|_|_|_|   |  License: GPLv3
                |___|
*/
FoamFile
{
    version     2.0;
    format      ascii;
    class       volVectorField;
    location    "75.0";
    object     U;
}

dimensions      [0 1 0 0 0 0 0]; 

internalField   nonuniform List<vector>
100
(
(0.015493940621222117 0.036171543659308525 0.0) 
(0.020200769149498806 0.04641590691795179 0.0) 
(0.028624382191953793 0.0469741164602977 0.0) 
(0.03740363994909537 0.04947013928450205 0.0) 
(0.045926469740727005 0.05095959977124336 0.0) 
(0.05438600364521895 0.050945723590843976 0.0) 
(0.06293858566322949 0.04942377729114784 0.0) 
(0.07181267872054593 0.046954139122759024 0.0) 
(0.08001340382521922 0.045995811539542276 0.0) 
(0.08555543426835548 0.035544926147012004 0.0) 
(0.015916682874555048 0.023936608956965182 0.0) 
(0.015045814863654786 0.036053868609475806 0.0) 
(0.024755558853895982 0.03994033756352294 0.0) 
(0.0351076623160238 0.04177441057803536 0.0) 
(0.04517426181603328 0.042801964335162285 0.0) 
(0.05513694842102346 0.04277801932917156 0.0) 
(0.06522424159263385 0.041696402919705555 0.0) 
(0.07558154372463122 0.039760005223868966 0.0) 
(0.08529406733066987 0.03567675065026092 0.0) 
(0.08420702214558715 0.023794529607995128 0.0) 
(0.011601827979789035 0.013050552616003464 0.0) 
(0.01117225240669431 0.024379037782865272 0.0) 
(0.021223698277709074 0.028564233432710345 0.0) 
(0.033009430891950714 0.030424989826528376 0.0) 
(0.04446987299028531 0.031174696634828934 0.0) 
(0.055777504795623226 0.031144594296004028 0.0) 
(0.06723172564802152 0.030328627731934298 0.0) 
(0.07898366550872893 0.02838485841640791 0.0) 
(0.08893306024580613 0.024185602966998055 0.0) 
(0.08849099006014882 0.012995674185306155 0.0) 
(0.011619050131182331 0.00726073834138186 0.0) 
(0.00857353693175638 0.013882017535099048 0.0) 
(0.01886513621765917 0.01713131698721834 0.0) 
(0.03142627199366592 0.01853454172314817 0.0) 
(0.04391531046728182 0.019056808033263054 0.0) 
(0.05625656722079349 0.019031318685757432 0.0) 
(0.0687254061358003 0.018458121221208584 0.0) 
(0.0812357791960078 0.017019371393869016 0.0) 
(0.09146980202855307 0.013780242498947364 0.0) 
(0.08833938837339411 0.0072411780496993575 0.0) 
(0.0117520297127375 0.002319061316395621 0.0) 
(0.007704843489121358 0.004563373870006263 0.0) 
(0.01773531901974516 0.00569713746744567 0.0) 
(0.03061757887718608 0.006232661282119712 0.0) 
(0.043611708405207346 0.006420572071578013 0.0) 
(0.056501467296031636 0.0064052726139542 0.0) 
(0.06947312381917685 0.006189993092401649 0.0) 
(0.08231600459854188 0.00563842311973929 0.0) 
(0.09230960913845808 0.004514992177019022 0.0) 
(0.08826355582019567 0.0022996460968217735 0.0) 
(0.011785494504340062 -0.0022625225496715464 0.0) 
(0.0077054475728921615 -0.004549237390268558 0.0) 
(0.017737631935668387 -0.005708281638490677 0.0) 
(0.030616213995019168 -0.006251319942949077 0.0) 
(0.04360173731216512 -0.0064489134314187685 0.0) 
(0.05648222311259066 -0.006453605274093862 0.0) 
(0.06944805321768631 -0.006264209297010262 0.0) 
(0.08229262319523051 -0.005727224305421097 0.0) 
(0.09229971206441388 -0.004576054101981226 0.0) 
(0.08822691986995394 -0.002286049346931145 0.0) 
(0.011658115669757493 -0.007207665778476142 0.0) 
(0.008585716775993383 -0.013876583900757798 0.0) 
(0.018879129389431374 -0.017137028425839425 0.0) 
(0.03142350842817548 -0.018535970387505367 0.0) 
(0.04388561045501215 -0.019066130120880247 0.0) 
(0.05619783929198124 -0.019062647888999768 0.0) 
(0.06864465073684757 -0.01852527880231073 0.0) 
(0.08115911633910065 -0.017119908114530187 0.0) 
(0.09141923657454869 -0.013874196704357527 0.0) 
(0.08831874384715645 -0.0072416959551444655 0.0) 
(0.011740222568997776 -0.013030044658421565 0.0) 
(0.011244929957246744 -0.024395076398140585 0.0) 
(0.02125422642877366 -0.028538194257178264 0.0) 
(0.033006232864911444 -0.03038895945949339 0.0) 
(0.04442214960442171 -0.031144465687400383 0.0) 
(0.05567886101210982 -0.031136577107948357 0.0) 
(0.06708835523909881 -0.03036578998074716 0.0) 
(0.0788220945768756 -0.02849974295780795 0.0) 
(0.08883295659988245 -0.024336363039346994 0.0) 
(0.08829789792364588 -0.013048552979872178 0.0) 
(0.016425876154161898 -0.024045835712831035 0.0) 
(0.015117490576676707 -0.03601921009139198 0.0) 
(0.024790450394135768 -0.03986216165575314 0.0) 
(0.035094545335325064 -0.0416803141033307 0.0) 
(0.045105512287926884 -0.042711367266362286 0.0) 
(0.05500721903643623 -0.042708819059959935 0.0) 
(0.06502445211107208 -0.0416639427668393 0.0) 
(0.07533834249100634 -0.03982321280137967 0.0) 
(0.08500007159713283 -0.03596606606871753 0.0) 
(0.08410927111915929 -0.023929420976604887 0.0) 
(0.015476625332847986 -0.036324751108512104 0.0) 
(0.02027564824477986 -0.04632970560991772 0.0) 
(0.028620402951581136 -0.04686002864775347 0.0) 
(0.037373827263563 -0.04932334074677975 0.0) 
(0.045851611743871534 -0.05082228436855916 0.0) 
(0.054251140260373365 -0.05082126937356575 0.0) 
(0.06273179250422922 -0.04932117024235114 0.0) 
(0.07148354731206895 -0.04683140679974582 0.0) 
(0.07987993884170651 -0.04628558544915228 0.0) 
(0.08455163437327054 -0.036113613127869336 0.0) 
)
;

boundaryField
{
	bottom
	{
		type	solidTraction;
		value	nonuniform List<vector>
10
(
(0.01666660615704388 0.04207831412655452 0.0) 
(0.022900099795135073 0.049170514432278496 0.0) 
(0.030591265398570565 0.05122019650253658 0.0) 
(0.03850516720270391 0.05314450728129238 0.0) 
(0.04629462429187656 0.05472229989937141 0.0) 
(0.05402625173098566 0.05471324307476167 0.0) 
(0.06186064768172153 0.053132502054263786 0.0) 
(0.06981307234842352 0.05116689270112226 0.0) 
(0.07764102891036118 0.048743094943088365 0.0) 
(0.08451131676170139 0.04133706416003455 0.0) 
)
;
	}
	top
	{
		type	solidTraction;
		value	nonuniform List<vector>
10
(
(0.01656603471211309 -0.04222291788806013 0.0) 
(0.022880484316061243 -0.049121414670170324 0.0) 
(0.030582132357816014 -0.051085563592234776 0.0) 
(0.038462619492482204 -0.05298143859901498 0.0) 
(0.04621267636993207 -0.05456107825928496 0.0) 
(0.053885495536745286 -0.054561733834509026 0.0) 
(0.06163543561668002 -0.05297995241527063 0.0) 
(0.06952491192752319 -0.05106323955914427 0.0) 
(0.0771930898199995 -0.04903453829137344 0.0) 
(0.0833968387371059 -0.041997032850055814 0.0) 
)
;
	}
	left
	{
		type	fixedValue;
		value	uniform (0.0 0.0 0.0);
	}
	right
	{
		type	fixedValue;
		value	uniform (0.1 0.0 0.0);
	}
	frontAndBackPlanes
	{
		type	empty;
	}
}
