/*
 _____     _____     _____ _____ _____ _____    |  High-order Python FOAM
|  |  |___|  _  |_ _|   __|     |  _  |     |   |  Python Version: 3.10
|     | . |   __| | |   __|  |  |     | | | |   |  Code Version: 0.0
|__|__|___|__|  |_  |__|  |_____|__|__|_|_|_|   |  License: GPLv3
                |___|
*/
FoamFile
{
    version     2.0;
    format      ascii;
    class       volVectorField;
    location    "1.0";
    object     U;
}

dimensions      [0 1 0 0 0 0 0]; 

internalField   nonuniform List<vector>
146
(
(0.002605630425666669 2.3798237686056776e-17 0.0) 
(0.001508141246000011 9.378348791999596e-18 0.0) 
(0.0068690267340000425 1.2143064331837627e-16 0.0) 
(0.005653096015666663 8.928404890418112e-17 0.0) 
(0.005000000000000003 7.188260403578881e-17 0.0) 
(0.00750000000000008 1.394283993816356e-16 0.0) 
(0.00828050475833327 1.7087026238371518e-16 0.0) 
(0.008615586396666689 1.8182070432581875e-16 0.0) 
(0.0018749999999999763 1.7520029481007914e-17 0.0) 
(0.008670634920666746 1.8648277366750642e-16 0.0) 
(0.0025410356136666775 2.2083843000814075e-17 0.0) 
(0.007468893512333339 1.4311468676808631e-16 0.0) 
(0.0016666666666666622 1.2769180498536163e-17 0.0) 
(0.00827380952366656 1.7824283715661658e-16 0.0) 
(0.005232214561666582 8.852510738344126e-17 0.0) 
(0.001968901476666657 1.6832238727837426e-17 0.0) 
(0.003571894244666616 4.8865330727100494e-17 0.0) 
(0.00798670784266666 1.6132928326584276e-16 0.0) 
(0.0043806094539999806 6.044427111606676e-17 0.0) 
(0.0062500000000000775 9.862174011471251e-17 0.0) 
(0.0031034221633333046 3.8014838672772925e-17 0.0) 
(0.006272122749666672 1.0714627969587978e-16 0.0) 
(0.008477625873666671 1.7650811368063978e-16 0.0) 
(0.005618472873666647 8.95754282380366e-17 0.0) 
(0.006464729998666575 1.2229800505636468e-16 0.0) 
(0.005743573587999917 1.0133055148003175e-16 0.0) 
(0.006758420089666619 1.2533377113932407e-16 0.0) 
(0.004970986311999979 7.448468924975402e-17 0.0) 
(0.0019689014766666483 1.9175131859942814e-17 0.0) 
(0.005905703226333274 1.0398854086851575e-16 0.0) 
(0.0031423611109999867 3.5039211929068574e-17 0.0) 
(0.0030541234863332976 3.7811550765431893e-17 0.0) 
(0.0015522348099999874 1.2942663434045685e-17 0.0) 
(0.0031423611109999954 3.352895218411416e-17 0.0) 
(0.004371224556000029 5.568055782070858e-17 0.0) 
(0.002589267218666705 2.0843786766033783e-17 0.0) 
(0.003734031617333301 4.8368969420009474e-17 0.0) 
(0.007146990740666601 1.3931997916438705e-16 0.0) 
(0.005000000000000025 7.081534252224839e-17 0.0) 
(0.00624402673400003 1.0397498834135968e-16 0.0) 
(0.005036395450000065 6.921275618604325e-17 0.0) 
(0.0037906454306667137 4.3164798992079065e-17 0.0) 
(0.004632783970666596 7.364443256607775e-17 0.0) 
(0.004374999999999995 5.90348082918356e-17 0.0) 
(0.003763585667000016 4.342229700804437e-17 0.0) 
(0.006875000000000069 1.1825935196385617e-16 0.0) 
(0.008743279123999958 1.838806884535412e-16 0.0) 
(0.007857142856999911 1.640397886970565e-16 0.0) 
(0.005478032265333267 9.400032835449306e-17 0.0) 
(0.008149801587333399 1.655576717385362e-16 0.0) 
(0.003772970564999976 4.808436634973203e-17 0.0) 
(0.003767361111000005 4.472672774681599e-17 0.0) 
(0.0056250000000000605 8.46490846168056e-17 0.0) 
(0.005625000000000043 8.586881206085179e-17 0.0) 
(0.008327472690333244 1.7312675815520063e-16 0.0) 
(0.004359997199666628 6.185373394029792e-17 0.0) 
(0.005672360958666621 9.546400128734848e-17 0.0) 
(0.0030739908550000195 3.023568808518945e-17 0.0) 
(0.0018639522803333434 1.344410693882023e-17 0.0) 
(0.0024680624339999636 2.6942423986264733e-17 0.0) 
(0.006098796947666635 1.0430024899310533e-16 0.0) 
(0.004989313005333297 7.638204305160364e-17 0.0) 
(0.007448843062666701 1.407294419886182e-16 0.0) 
(0.008104617916000036 1.6398557858843223e-16 0.0) 
(0.006720709866333259 1.2793585635328928e-16 0.0) 
(0.007014195315999911 1.374768354711617e-16 0.0) 
(0.0071314797986666385 1.356607968322485e-16 0.0) 
(0.006917173199333331 1.2663481374630667e-16 0.0) 
(0.0017859190240000187 1.2048196641745145e-17 0.0) 
(0.0019632693146666652 1.5693826446727646e-17 0.0) 
(0.0015118804256666694 9.994988777600726e-18 0.0) 
(0.00788974918433329 1.6024508109335726e-16 0.0) 
(0.008193256915333307 1.6924395912498692e-16 0.0) 
(0.0026112625876666506 2.7050844203513283e-17 0.0) 
(0.002611262587666644 2.8704252516553674e-17 0.0) 
(0.0030646551686666947 2.944964151013746e-17 0.0) 
(0.002478152835000029 1.9339456251710148e-17 0.0) 
(0.004247158503999951 6.189439152176612e-17 0.0) 
(0.004755417231333269 7.399679827213554e-17 0.0) 
(0.008884548869999976 1.9125326322644261e-16 0.0) 
(0.000381944444333335 1.5839516113655386e-18 0.0) 
(0.007023809523666553 1.3704315460216751e-16 0.0) 
(0.001874999999999958 1.7455654977016587e-17 0.0) 
(0.0013515249963333507 7.372574772901416e-18 0.0) 
(0.001354166666666645 1.066583887182613e-17 0.0) 
(0.004407620006000045 5.60803573718126e-17 0.0) 
(0.00791080602366659 1.6154612370033986e-16 0.0) 
(0.00033434449366667203 1.2739375526704654e-18 0.0) 
(0.009608134920666705 2.1488887058662658e-16 0.0) 
(0.0021560968960000356 1.5314355686357722e-17 0.0) 
(0.0016105884846666927 1.0055975149803035e-17 0.0) 
(0.009583333333333222 2.0383000842727444e-16 0.0) 
(0.008125000000000134 1.5785983631388915e-16 0.0) 
(0.00041666666666666436 2.344587197999899e-18 0.0) 
(0.0056250000000001 7.697835424647067e-17 0.0) 
(0.00041666666666666236 2.5648157642860164e-18 0.0) 
(0.000833333333333326 5.814034149953507e-18 0.0) 
(0.0044790267659999055 7.025630077706055e-17 0.0) 
(0.009736739324999945 2.1492614003630577e-16 0.0) 
(0.0029631862383333917 2.3906657903305327e-17 0.0) 
(0.006250000000000098 9.906897351086278e-17 0.0) 
(0.006875000000000127 1.2056328158038787e-16 0.0) 
(0.007500000000000121 1.400789206851269e-16 0.0) 
(0.004163464190999922 6.266688556966203e-17 0.0) 
(0.009273104726333272 2.0006240587788734e-16 0.0) 
(0.0031795449963333876 2.7701365507004586e-17 0.0) 
(0.0008333333333333313 5.0957502106818616e-18 0.0) 
(0.00041666666666666686 2.0599841277224546e-18 0.0) 
(0.0007986111110000015 4.133520782600978e-18 0.0) 
(0.00035745828033333733 1.1146953585866571e-18 0.0) 
(0.0007394027246666725 3.4575884906920474e-18 0.0) 
(0.002468062433999952 2.764715539838031e-17 0.0) 
(0.0030930624339999325 3.9275223698287324e-17 0.0) 
(0.003610833192333269 5.189262648058736e-17 0.0) 
(0.0007510111603333493 3.686287386450708e-18 0.0) 
(0.0006918027740000092 2.5953089503871712e-18 0.0) 
(0.001354166666666638 1.0245710529987997e-17 0.0) 
(0.00031249999999999426 1.544988095791841e-18 0.0) 
(0.0007291666666666564 4.621411760219454e-18 0.0) 
(0.0003124999999999935 1.7482760031328724e-18 0.0) 
(0.0007291666666666502 3.99799551104029e-18 0.0) 
(0.005036395450000082 6.657001339060985e-17 0.0) 
(0.004411395450000077 5.4806419819142144e-17 0.0) 
(0.003794420874666728 4.51028103753969e-17 0.0) 
(0.00916080602366657 1.9515639104739043e-16 0.0) 
(0.009577472690333244 2.052394712515056e-16 0.0) 
(0.009113838091666597 1.9472271017839623e-16 0.0) 
(0.00864583333333344 1.8561541192951801e-16 0.0) 
(0.009687500000000111 2.3939183968479894e-16 0.0) 
(0.009270833333333464 2.1824989732133162e-16 0.0) 
(0.009687500000000085 2.2795350676507686e-16 0.0) 
(0.009295634920666736 2.0860049798621066e-16 0.0) 
(0.009166666666666556 1.9949319973733245e-16 0.0) 
(0.009166666666666557 2.038029033729623e-16 0.0) 
(0.009583333333333227 2.0252896582029183e-16 0.0) 
(0.008333333333333208 1.8875959822972598e-16 0.0) 
(0.007857142856999887 1.6989448042847822e-16 0.0) 
(0.005700534682666566 1.0180658399638867e-16 0.0) 
(0.005179561448666572 8.847089727481699e-17 0.0) 
(0.009677635147333333 2.1774845381655708e-16 0.0) 
(0.00941437447233331 2.0496842070838422e-16 0.0) 
(0.0013675329290000259 7.480994990149967e-18 0.0) 
(0.0018665217686667046 1.188556631587232e-17 0.0) 
(0.0023297080070000444 1.6913553890773838e-17 0.0) 
(0.009285770068000026 2.0404684886177154e-16 0.0) 
(0.006474344206333233 1.2099696244938207e-16 0.0) 
)
;

boundaryField
{
	bottom
	{
		type	solidTraction;
		value	nonuniform List<vector>
8
(
(0.00812500000000016 1.505436735547226e-16 0.0) 
(0.005625000000000127 7.164140095547874e-17 0.0) 
(0.0031250000000000687 2.6314675830913606e-17 0.0) 
(0.006875000000000146 1.1897262533838949e-16 0.0) 
(0.0006250000000000158 3.883274710616923e-18 0.0) 
(0.0043750000000000715 5.640937032882644e-17 0.0) 
(0.009375000000000175 2.25431235380183e-16 0.0) 
(0.0018750000000000433 1.1974886943142551e-17 0.0) 
)
;
	}
	top
	{
		type	solidTraction;
		value	nonuniform List<vector>
8
(
(0.006874999999999857 1.2979941626622264e-16 0.0) 
(0.001874999999999949 1.6670991994385567e-17 0.0) 
(0.0043749999999999085 6.734183417114643e-17 0.0) 
(0.003124999999999909 4.110566870386466e-17 0.0) 
(0.000624999999999987 3.3641187900947786e-18 0.0) 
(0.009374999999999927 2.0489787674983676e-16 0.0) 
(0.008124999999999861 1.825528070584285e-16 0.0) 
(0.005624999999999897 1.0063527220016198e-16 0.0) 
)
;
	}
	left
	{
		type	fixedValue;
		value	uniform (0.0 0.0 0.0);
	}
	right
	{
		type	solidTraction;
		value	nonuniform List<vector>
8
(
(0.010000000000000037 2.2739186320469935e-16 0.0) 
(0.00999999999999988 2.0587623594578182e-16 0.0) 
(0.009999999999999941 2.240382076571106e-16 0.0) 
(0.009999999999999913 2.1353791745220003e-16 0.0) 
(0.010000000000000104 2.6110585208582754e-16 0.0) 
(0.010000000000000075 2.3893153332970254e-16 0.0) 
(0.009999999999999887 1.9503314474650313e-16 0.0) 
(0.010000000000000009 2.335115822028912e-16 0.0) 
)
;
	}
	frontAndBackPlanes
	{
		type	empty;
	}
}
