/*
 _____     _____     _____ _____ _____ _____    |  High-order Python FOAM
|  |  |___|  _  |_ _|   __|     |  _  |     |   |  Python Version: 3.10
|     | . |   __| | |   __|  |  |     | | | |   |  Code Version: 0.0
|__|__|___|__|  |_  |__|  |_____|__|__|_|_|_|   |  License: GPLv3
                |___|
*/
FoamFile
{
    version     2.0;
    format      ascii;
    class       volVectorField;
    location    "39.0";
    object     U;
}

dimensions      [0 1 0 0 0 0 0]; 

internalField   nonuniform List<vector>
100
(
(0.01693008779212731 0.0332835453088267 0.0) 
(0.02106385415229678 0.04732025185498716 0.0) 
(0.0283397342963223 0.04791010900535733 0.0) 
(0.03707589124377621 0.049570267103261664 0.0) 
(0.045802328377421986 0.05065400603765605 0.0) 
(0.054446200481474 0.05064618706790552 0.0) 
(0.0631871042894721 0.04953115414656722 0.0) 
(0.0719769373653712 0.04783432700026371 0.0) 
(0.07915197227091805 0.04689593278276804 0.0) 
(0.08396695591057064 0.03288667291488536 0.0) 
(0.014396163980075139 0.0217230716382845 0.0) 
(0.015359867398335796 0.03574644659664797 0.0) 
(0.024554878798282498 0.04028061871054675 0.0) 
(0.03481786345893991 0.04183545720017412 0.0) 
(0.04505782257714472 0.04257785194318392 0.0) 
(0.05519518965710714 0.04255611350226447 0.0) 
(0.0654495200367659 0.041758770309250653 0.0) 
(0.07571810694305321 0.0401055787357899 0.0) 
(0.08490515025292776 0.03544351139324519 0.0) 
(0.08566774600818422 0.021613917817185153 0.0) 
(0.010851215727075916 0.012312292354172836 0.0) 
(0.01154693989226166 0.024052629162589063 0.0) 
(0.02095252721672907 0.02880896411354296 0.0) 
(0.032610290400278574 0.030709507207246245 0.0) 
(0.044310033154771764 0.03134915675897043 0.0) 
(0.05589418595933605 0.031320908231463794 0.0) 
(0.06758421936887639 0.030620472033176253 0.0) 
(0.07920652897733492 0.028655358111223148 0.0) 
(0.08853196636219014 0.023899247430237594 0.0) 
(0.08921872579676733 0.012273934599245126 0.0) 
(0.010924639771204408 0.00683987626202931 0.0) 
(0.009316600988076497 0.013730943508326716 0.0) 
(0.01867880566750996 0.017238383964452476 0.0) 
(0.03098126276726185 0.018740912188325066 0.0) 
(0.04372488137290974 0.01924865120075579 0.0) 
(0.05641642272418727 0.01922495415746718 0.0) 
(0.06914024751423849 0.018672133152987387 0.0) 
(0.08139879828573068 0.017142207428738745 0.0) 
(0.09071511123625857 0.013647745401180012 0.0) 
(0.08902521645876221 0.006821215008782419 0.0) 
(0.011073527134812534 0.002185437886572638 0.0) 
(0.008574901154922104 0.004501225492698863 0.0) 
(0.01762861244537578 0.005721816558976949 0.0) 
(0.03017272366149241 0.006293650280653657 0.0) 
(0.043412833714562955 0.006485684649201809 0.0) 
(0.05667878134296911 0.006470946794840997 0.0) 
(0.06989937487746321 0.006253162384162783 0.0) 
(0.08241095692788694 0.005667547837813771 0.0) 
(0.09143579348898358 0.0044570924899669795 0.0) 
(0.08893271973880947 0.0021667596059980784 0.0) 
(0.011102852280770202 -0.002145488945838579 0.0) 
(0.008577189884190777 -0.004492824295173488 0.0) 
(0.017630871070451425 -0.0057344321968424775 0.0) 
(0.03017106620089298 -0.00631434402161844 0.0) 
(0.04340404348674798 -0.006517428819479982 0.0) 
(0.05666269962706003 -0.006523326400459497 0.0) 
(0.06987910042853765 -0.006330759976244418 0.0) 
(0.08239229300152197 -0.005758292651635039 0.0) 
(0.09142757748109491 -0.004522870485438776 0.0) 
(0.08890238679663913 -0.002167973084231244 0.0) 
(0.010956637333621042 -0.006803856259657036 0.0) 
(0.009333174188389276 -0.013731005082646415 0.0) 
(0.018690995279351794 -0.01724654808042437 0.0) 
(0.030977464445074578 -0.018747555741938995 0.0) 
(0.04369907600973526 -0.019264673635498587 0.0) 
(0.056367537357922715 -0.019263362806157595 0.0) 
(0.06907557168893227 -0.018744191771539704 0.0) 
(0.08133859633037888 -0.017242013045073706 0.0) 
(0.09067270470693777 -0.013738845222879176 0.0) 
(0.08901593650601992 -0.0068323953696084756 0.0) 
(0.010972835668535783 -0.012304479329653627 0.0) 
(0.011616715788432645 -0.0240711440676043 0.0) 
(0.020979032792968765 -0.028793870232394332 0.0) 
(0.032606373672598304 -0.03068739486216772 0.0) 
(0.04426987250452947 -0.031332884274424315 0.0) 
(0.055813135400768675 -0.03132652255506858 0.0) 
(0.06746973050420244 -0.0306704864606678 0.0) 
(0.07908274286583293 -0.028769060181333496 0.0) 
(0.08845267675649512 -0.02403352931893056 0.0) 
(0.08905151342865315 -0.012316481676732749 0.0) 
(0.014815025142193697 -0.021795894975356184 0.0) 
(0.015434771807881576 -0.035728822783987056 0.0) 
(0.024586703053657222 -0.04023037807185275 0.0) 
(0.03480829248350141 -0.04177079208929677 0.0) 
(0.04500343950894913 -0.04251285840900943 0.0) 
(0.05509186126521107 -0.042509537184397705 0.0) 
(0.06529327017190883 -0.041754409753453334 0.0) 
(0.07552805328573126 -0.04019769432577283 0.0) 
(0.08467629353403834 -0.03568924613340595 0.0) 
(0.08561974101387076 -0.021723574177896998 0.0) 
(0.01693658223398223 -0.03339400305631618 0.0) 
(0.02113338290081574 -0.04726325476360196 0.0) 
(0.028343680095498088 -0.047833730328703306 0.0) 
(0.037053635835639254 -0.0494651769475666 0.0) 
(0.04574384361229231 -0.05054868638938638 0.0) 
(0.054343197022202624 -0.050545900053826066 0.0) 
(0.06303848539957391 -0.04945837580856707 0.0) 
(0.07175117897775386 -0.04780490313749819 0.0) 
(0.07900251098653675 -0.04722479696356814 0.0) 
(0.08310077043751546 -0.03325061121662837 0.0) 
)
;

boundaryField
{
	bottom
	{
		type	solidTraction;
		value	nonuniform List<vector>
10
(
(0.018830983130020563 0.03936658771953569 0.0) 
(0.02408601459416851 0.04946052359229079 0.0) 
(0.03053137751601417 0.052289137852894955 0.0) 
(0.03820066709228239 0.05337935924493688 0.0) 
(0.04615949455876455 0.05444959778057318 0.0) 
(0.05409048355146651 0.05444547975372804 0.0) 
(0.062071127254740864 0.0533589144860519 0.0) 
(0.06976946649903501 0.052176179376358364 0.0) 
(0.07639686746403523 0.04906827077961061 0.0) 
(0.08219839758688154 0.038873378058697484 0.0) 
)
;
	}
	top
	{
		type	solidTraction;
		value	nonuniform List<vector>
10
(
(0.018771329927483555 -0.039470354347671266 0.0) 
(0.02408123456364708 -0.04942891291470192 0.0) 
(0.03053106756448371 -0.05219657975318427 0.0) 
(0.03816973360729146 -0.053260898960729844 0.0) 
(0.04609673267323941 -0.054323953936479846 0.0) 
(0.053987193958822566 -0.05432223310031313 0.0) 
(0.061917006090004396 -0.05325375306003533 0.0) 
(0.06956524404989821 -0.05217126646751966 0.0) 
(0.07598967163156854 -0.04936127441804984 0.0) 
(0.08121511709852196 -0.039315554985106686 0.0) 
)
;
	}
	left
	{
		type	fixedValue;
		value	uniform (0.0 0.0 0.0);
	}
	right
	{
		type	fixedValue;
		value	uniform (0.1 0.0 0.0);
	}
	frontAndBackPlanes
	{
		type	empty;
	}
}
