/*
 _____     _____     _____ _____ _____ _____    |  High-order Python FOAM
|  |  |___|  _  |_ _|   __|     |  _  |     |   |  Python Version: 3.10
|     | . |   __| | |   __|  |  |     | | | |   |  Code Version: 0.0
|__|__|___|__|  |_  |__|  |_____|__|__|_|_|_|   |  License: GPLv3
                |___|
*/
FoamFile
{
    version     2.0;
    format      ascii;
    class       volScalarField;
    location    "15.0";
    object     pCorr;
}

dimensions      [0 0 0 1 0 0 0]; 

internalField   nonuniform List<scalar>
100
(
4508.475608291238 
-9662.988822059826 
-8756.983381215861 
-3703.6480809185905 
321.8175332821492 
304.72804194199966 
-3716.400218456766 
-8701.314878518002 
-9277.8463156778 
4123.575567166191 
19059.16926946902 
1678.4483129913979 
2181.656757887974 
11016.169690437127 
17506.74722699792 
17500.798375680515 
11024.510198030172 
2268.1825537919467 
1686.350705921933 
18819.84227873489 
24656.2464799314 
11675.198107821245 
14857.14890098672 
25658.47384388474 
33497.75642911071 
33479.31693131272 
25620.145838513054 
14814.474348786567 
11601.569522047874 
24483.545836771504 
33328.536160849915 
21527.645063901306 
26423.721852084785 
37755.32102059093 
45752.85552904877 
45728.88029692726 
37692.11092844092 
26336.024212904107 
21415.15943396711 
33187.199823557574 
38583.378776834026 
27545.957673952184 
33023.5391257528 
44486.27904510393 
52409.25101149519 
52386.29069973981 
44424.40905942352 
32934.64403355736 
27435.25526175178 
38463.426306017405 
38575.60446837657 
27519.42737926033 
32998.46188245904 
44473.54765944155 
52408.47853660432 
52391.808285963925 
44429.00134750467 
32932.927441262174 
27432.236770567084 
38473.761388871346 
33321.145212546275 
21451.813238438524 
26352.92776883756 
37719.734463173925 
45751.657878536564 
45742.65010592071 
37698.31616901285 
26323.125512591734 
21401.038017048468 
33228.81562912144 
24692.758135932232 
11572.099095425947 
14748.879602361532 
25607.874394165938 
33502.20386142519 
33500.82234079825 
25614.820673710994 
14764.20243329758 
11557.2191272427 
24576.661295144968 
19201.066964432473 
1554.100657142502 
2079.8807764430844 
10976.083678876224 
17516.034367653585 
17526.55565057558 
11006.599356596706 
2133.010454745937 
1592.495862207693 
19003.825319117528 
4460.300296854118 
-9675.565765723475 
-8797.660425955512 
-3705.317091431554 
358.7205053770799 
351.90963944857765 
-3710.8273316302702 
-8776.687773785128 
-9673.989623245927 
4484.756443515418 
)
;

boundaryField
{
	bottom
	{
		type	fixedValue;
		value	uniform 0.0;
	}
	top
	{
		type	fixedValue;
		value	uniform 0.0;
	}
	left
	{
		type	zeroGradient;
	}
	right
	{
		type	zeroGradient;
	}
	frontAndBackPlanes
	{
		type	empty;
	}
}
