/*
 _____     _____     _____ _____ _____ _____    |  High-order Python FOAM
|  |  |___|  _  |_ _|   __|     |  _  |     |   |  Python Version: 3.10
|     | . |   __| | |   __|  |  |     | | | |   |  Code Version: 0.0
|__|__|___|__|  |_  |__|  |_____|__|__|_|_|_|   |  License: GPLv3
                |___|
*/
FoamFile
{
    version     2.0;
    format      ascii;
    class       volVectorField;
    location    "15.0";
    object     U;
}

dimensions      [0 1 0 0 0 0 0]; 

internalField   nonuniform List<vector>
100
(
(0.017569381693548283 0.02557718310669514 0.0) 
(0.022416285330145343 0.0462097844028119 0.0) 
(0.027239053049137377 0.049755697051375926 0.0) 
(0.035329028128607456 0.05014900921356194 0.0) 
(0.044959994864293286 0.049555924567301284 0.0) 
(0.05519405702590208 0.04955130260554129 0.0) 
(0.06482324665947578 0.05011152767739584 0.0) 
(0.07293187147779531 0.04964813905986807 0.0) 
(0.0777541104995719 0.04591389233187251 0.0) 
(0.08297482606455404 0.02545459422529069 0.0) 
(0.010569058454630338 0.01708279657682039 0.0) 
(0.0141773518812872 0.03248265282831138 0.0) 
(0.02286417669372769 0.038899456123720526 0.0) 
(0.03317441919686282 0.04033864840853473 0.0) 
(0.04437660083250012 0.040407738151859406 0.0) 
(0.05578934301225879 0.040390244280829164 0.0) 
(0.06699849958536026 0.04027667352044091 0.0) 
(0.07730952464800261 0.03877347358206267 0.0) 
(0.08597077115164979 0.032316508512963076 0.0) 
(0.08943475573184205 0.017028337172696476 0.0) 
(0.008427092357425753 0.009914331220241929 0.0) 
(0.010487695802759328 0.021174415921135035 0.0) 
(0.019095888864116093 0.026820372737138984 0.0) 
(0.03074751142565204 0.029058155500248033 0.0) 
(0.04353402122263252 0.02962002694600349 0.0) 
(0.056603823342217 0.029599099114771592 0.0) 
(0.0693757991277265 0.028995866675776357 0.0) 
(0.08099500115513658 0.026726105979998707 0.0) 
(0.0895564404378241 0.0210924169750567 0.0) 
(0.09160842220982841 0.009898121676128588 0.0) 
(0.008183914384164792 0.005395628382827758 0.0) 
(0.008751051808142942 0.011885237545437488 0.0) 
(0.017102385883214517 0.015691414205936276 0.0) 
(0.029184624719354377 0.017508945940646108 0.0) 
(0.04294984092572729 0.018128380170536116 0.0) 
(0.0571453776110472 0.018111824367415395 0.0) 
(0.07089300933870353 0.017463260622786234 0.0) 
(0.08294396707490202 0.015632039126536813 0.0) 
(0.09126817720901391 0.01183798077324303 0.0) 
(0.09178911294113425 0.0053837850934073846 0.0) 
(0.008209433972254035 0.0016995235777992038 0.0) 
(0.008167237444602933 0.003847094476140214 0.0) 
(0.016276859844144762 0.0051562139772100305 0.0) 
(0.028497160435441662 0.005840187047730123 0.0) 
(0.04267327981628043 0.006093208965832982 0.0) 
(0.05738839480121705 0.006082651882035961 0.0) 
(0.07155007710444965 0.00581187432441332 0.0) 
(0.0837483889680299 0.00511975804753449 0.0) 
(0.09184031307458229 0.0038177369234373448 0.0) 
(0.09178871202640072 0.0016865030104310402 0.0) 
(0.008221767223480368 -0.001676911135675561 0.0) 
(0.008168531272417994 -0.0038445882226539278 0.0) 
(0.016276895416273737 -0.005167016091159763 0.0) 
(0.02849429511919375 -0.005856888382168521 0.0) 
(0.04266662376782126 -0.00611878649716873 0.0) 
(0.057378780610314845 -0.006123857487419004 0.0) 
(0.07153938321983137 -0.005870868576944001 0.0) 
(0.08373934380942369 -0.005186776317139989 0.0) 
(0.09183691125002073 -0.0038671353815391716 0.0) 
(0.09177696396447323 -0.001691931547858272 0.0) 
(0.008204403809950358 -0.005377518188073129 0.0) 
(0.0087607060440452 -0.011892045959363518 0.0) 
(0.01710599122760746 -0.015701372199509813 0.0) 
(0.02917662991090201 -0.017517989993700415 0.0) 
(0.042930549575793474 -0.018145245477751624 0.0) 
(0.057116481166804164 -0.0181453297548315 0.0) 
(0.07085960589171425 -0.017519091477653553 0.0) 
(0.08291472832437163 -0.0157039707357504 0.0) 
(0.09124771810126221 -0.011902375179950686 0.0) 
(0.09178693365640817 -0.005394731828172891 0.0) 
(0.008491719582769654 -0.009916192198602927 0.0) 
(0.010530565415085605 -0.02119943661270724 0.0) 
(0.019105357000661426 -0.026819644169533616 0.0) 
(0.030737030691992052 -0.02905323545681242 0.0) 
(0.04350495970464764 -0.029619054968721224 0.0) 
(0.05655682593018832 -0.029614561234286855 0.0) 
(0.06931657219242451 -0.0290424407577616 0.0) 
(0.08093589444589734 -0.026806763857987647 0.0) 
(0.08951684223870453 -0.0211825913874169 0.0) 
(0.09151813613094548 -0.009921451475272371 0.0) 
(0.01081499543577308 -0.01712338259239008 0.0) 
(0.014224156974597783 -0.0324919177838542 0.0) 
(0.022877477338375765 -0.03888997545396967 0.0) 
(0.033162199141277215 -0.04031410429816892 0.0) 
(0.044341131163050856 -0.04037749412131119 0.0) 
(0.055730991894000055 -0.04037459304600815 0.0) 
(0.0669171792882358 -0.040299633044023515 0.0) 
(0.07721136717272689 -0.038863505199711434 0.0) 
(0.08585231348835357 -0.03246485314313118 0.0) 
(0.0894286585795027 -0.01709026529841289 0.0) 
(0.017588947641743662 -0.025639192892942194 0.0) 
(0.0224624358050023 -0.04620475069033698 0.0) 
(0.02723685608698307 -0.04973983628303579 0.0) 
(0.03530622326406622 -0.05010336214935741 0.0) 
(0.04492224985385891 -0.04949610999958864 0.0) 
(0.055144226408412364 -0.04949692118795616 0.0) 
(0.06475909615666905 -0.05009870393243038 0.0) 
(0.07282660216144095 -0.049705215416468815 0.0) 
(0.07762529572416646 -0.04615814443763867 0.0) 
(0.08244514833261901 -0.025570187112889813 0.0) 
)
;

boundaryField
{
	bottom
	{
		type	solidTraction;
		value	nonuniform List<vector>
10
(
(0.021020561041940857 0.03150707813882178 0.0) 
(0.025933209650461947 0.047972996376584316 0.0) 
(0.03019285560474131 0.05473243761585882 0.0) 
(0.03674843107647688 0.05490306664061063 0.0) 
(0.04539280114369647 0.0542407387444424 0.0) 
(0.05475460443651869 0.05423654431713814 0.0) 
(0.06339947307335154 0.05486730038863255 0.0) 
(0.0699760768741474 0.0545979478100612 0.0) 
(0.07439075978526483 0.04772264913991688 0.0) 
(0.07962307980075674 0.03133321321690477 0.0) 
)
;
	}
	top
	{
		type	solidTraction;
		value	nonuniform List<vector>
10
(
(0.02100551487398855 -0.03156848320168456 0.0) 
(0.02593837387633145 -0.04797932381456184 0.0) 
(0.030189221980722953 -0.05470899652153108 0.0) 
(0.03672168210570679 -0.05485074893682985 0.0) 
(0.04535450873160174 -0.05416978284333243 0.0) 
(0.0547083453323511 -0.05417072465462549 0.0) 
(0.06333658616921121 -0.05484368057124831 0.0) 
(0.06987041146800484 -0.05467361053598604 0.0) 
(0.07411249610969906 -0.04792080867018097 0.0) 
(0.0790024205457804 -0.03148831915156216 0.0) 
)
;
	}
	left
	{
		type	fixedValue;
		value	uniform (0.0 0.0 0.0);
	}
	right
	{
		type	fixedValue;
		value	uniform (0.1 0.0 0.0);
	}
	frontAndBackPlanes
	{
		type	empty;
	}
}
