/*
 _____     _____     _____ _____ _____ _____    |  High-order Python FOAM
|  |  |___|  _  |_ _|   __|     |  _  |     |   |  Python Version: 3.10
|     | . |   __| | |   __|  |  |     | | | |   |  Code Version: 0.0
|__|__|___|__|  |_  |__|  |_____|__|__|_|_|_|   |  License: GPLv3
                |___|
*/
FoamFile
{
    version     2.0;
    format      ascii;
    class       volVectorField;
    location    "78.0";
    object     U;
}

dimensions      [0 1 0 0 0 0 0]; 

internalField   nonuniform List<vector>
100
(
(0.015421738721372487 0.03628535597757438 0.0) 
(0.02017085527806794 0.046382662992617556 0.0) 
(0.028627227581278173 0.04695196187285757 0.0) 
(0.03740353097094017 0.04946268458077252 0.0) 
(0.045924728598752435 0.05094780131589648 0.0) 
(0.05439039357898002 0.05093342735730738 0.0) 
(0.06294215505045994 0.04941524788471624 0.0) 
(0.0718160098415245 0.04693435458348665 0.0) 
(0.08004310942378386 0.04596416894352735 0.0) 
(0.08563355328669774 0.03564746041983902 0.0) 
(0.015981700822448153 0.024045011751928937 0.0) 
(0.01502139631160238 0.03606171128871256 0.0) 
(0.024760715301929238 0.0399254088752923 0.0) 
(0.03511689608227964 0.041764631319383204 0.0) 
(0.04517765308588974 0.04279497955499273 0.0) 
(0.055136139714687345 0.042770802987890745 0.0) 
(0.06521790531830984 0.04168634594989562 0.0) 
(0.07557925031089505 0.03974492136482893 0.0) 
(0.08532188612788894 0.035681211475630845 0.0) 
(0.08414513743021225 0.0239012198839143 0.0) 
(0.01163410027058046 0.013081294137267782 0.0) 
(0.011149573175628811 0.02438846927938586 0.0) 
(0.02123490229542674 0.0285482037987813 0.0) 
(0.0330257402687791 0.03040599655720942 0.0) 
(0.04447579845640306 0.0311571758445002 0.0) 
(0.055773587367886276 0.031126961369176923 0.0) 
(0.06721751150047461 0.03030930528695181 0.0) 
(0.07897462721303768 0.028367716391476283 0.0) 
(0.0889568534485769 0.024193208287672668 0.0) 
(0.0884599321474863 0.013025502972134896 0.0) 
(0.011645766963276667 0.007279207651907501 0.0) 
(0.008534868803161656 0.013884946858991684 0.0) 
(0.01887605398979862 0.01712311145295992 0.0) 
(0.03144643361718226 0.018521968118459388 0.0) 
(0.043922980959055585 0.019044124582123005 0.0) 
(0.056250387861129625 0.01901856460847247 0.0) 
(0.06870666210031899 0.01844524544189922 0.0) 
(0.08122587061537079 0.017010523289818388 0.0) 
(0.09150884875581829 0.013782391494512434 0.0) 
(0.08831335311417751 0.007259706292782671 0.0) 
(0.011778079755293144 0.0023247766481854365 0.0) 
(0.007661122696706978 0.004565024837013493 0.0) 
(0.017744285408279735 0.005694951791819693 0.0) 
(0.0306388882997622 0.006229029142369905 0.0) 
(0.043620049848331635 0.006416661188699224 0.0) 
(0.05649424089555903 0.006401346192713321 0.0) 
(0.06945274273074532 0.006186301651700289 0.0) 
(0.08230753859976239 0.005636109873316829 0.0) 
(0.09235333078439674 0.004516543288420719 0.0) 
(0.08823801217016589 0.002305437787239063 0.0) 
(0.011811701455465121 -0.0022673669774270514 0.0) 
(0.0076616215603661905 -0.004550725571591061 0.0) 
(0.01774660262239505 -0.005706200522678506 0.0) 
(0.0306375420107786 -0.006247782550866057 0.0) 
(0.04361002224123429 -0.006445043378402524 0.0) 
(0.05647485789257769 -0.006449674802783868 0.0) 
(0.06942747020136827 -0.0062604770443626355 0.0) 
(0.08228396974716429 -0.005724831708246717 0.0) 
(0.09234339806765032 -0.0045772742284652754 0.0) 
(0.08820108220548548 -0.0022908723855523594 0.0) 
(0.011685143472485237 -0.007225235366328911 0.0) 
(0.008546736926285855 -0.013879373947520512 0.0) 
(0.018890151104865874 -0.017128908170657545 0.0) 
(0.031443727446419135 -0.018523359607261567 0.0) 
(0.04389309296285034 -0.01905335954417124 0.0) 
(0.056191235352775315 -0.01904977262915459 0.0) 
(0.06862523777670722 -0.018512288332491127 0.0) 
(0.08114853195268402 -0.017111084368910515 0.0) 
(0.09145804074136778 -0.01387636848497551 0.0) 
(0.08829202648225946 -0.007259503997330329 0.0) 
(0.011773121289805342 -0.013060019921822312 0.0) 
(0.01122223898133739 -0.024404563380331926 0.0) 
(0.021265612872762567 -0.02852182589745057 0.0) 
(0.03302258227909321 -0.03036953846873805 0.0) 
(0.044427702772391206 -0.031126533379069475 0.0) 
(0.05567418984486936 -0.031118561971223736 0.0) 
(0.06707295780375744 -0.03034601332382795 0.0) 
(0.07881144229927985 -0.02848261100448802 0.0) 
(0.08885591231065543 -0.024344689718836642 0.0) 
(0.0882657769540071 -0.013078897282098802 0.0) 
(0.016495160006071635 -0.02415640924588932 0.0) 
(0.015092609066698291 -0.03602632462815697 0.0) 
(0.024795749232103936 -0.039846118528722226 0.0) 
(0.035103630228717146 -0.04166934405861554 0.0) 
(0.045108243242801174 -0.04270334827409815 0.0) 
(0.055005253082672935 -0.04270078631440353 0.0) 
(0.06501623195082357 -0.04165286250172954 0.0) 
(0.0753337375785536 -0.0398067544231107 0.0) 
(0.08502497424652446 -0.035972474254280046 0.0) 
(0.08404472449621156 -0.024037355941815285 0.0) 
(0.015402993304340825 -0.03644087668099756 0.0) 
(0.020246125017378287 -0.04629527063418488 0.0) 
(0.028622844817443295 -0.04683648480734024 0.0) 
(0.03737330125963347 -0.04931417490089755 0.0) 
(0.0458490649909391 -0.05080901819702654 0.0) 
(0.0542542701085814 -0.050808011077723196 0.0) 
(0.06273287537643353 -0.04931205536492946 0.0) 
(0.07148146517479748 -0.04680764830444104 0.0) 
(0.079910400511909 -0.04625079261311882 0.0) 
(0.08462448033321505 -0.03622610683828832 0.0) 
)
;

boundaryField
{
	bottom
	{
		type	solidTraction;
		value	nonuniform List<vector>
10
(
(0.0165656181303073 0.04218310760063352 0.0) 
(0.022851434623998863 0.049164934972705666 0.0) 
(0.030585350998500772 0.05119321389690406 0.0) 
(0.03850165444515061 0.05313311504967976 0.0) 
(0.04629229370650333 0.054709632268867464 0.0) 
(0.05403147831956819 0.054700044288819555 0.0) 
(0.06186844200435969 0.053120753548330395 0.0) 
(0.06982431325828624 0.05114263173383344 0.0) 
(0.07769208052760439 0.04873670953010239 0.0) 
(0.08461775244559291 0.041430045437890806 0.0) 
)
;
	}
	top
	{
		type	solidTraction;
		value	nonuniform List<vector>
10
(
(0.016462855872955977 -0.042329954580933644 0.0) 
(0.022831194933730918 -0.049115309731591505 0.0) 
(0.0305758201330661 -0.051057000407457316 0.0) 
(0.038458477145733874 -0.05296820752641946 0.0) 
(0.04620944404822844 -0.054546798806232824 0.0) 
(0.05388920246424312 -0.0545474878020788 0.0) 
(0.06163996208057146 -0.05296679239892179 0.0) 
(0.06953165557037458 -0.05103458214936482 0.0) 
(0.07724243519404113 -0.04902730791149389 0.0) 
(0.08349853350841398 -0.042100278241652044 0.0) 
)
;
	}
	left
	{
		type	fixedValue;
		value	uniform (0.0 0.0 0.0);
	}
	right
	{
		type	fixedValue;
		value	uniform (0.1 0.0 0.0);
	}
	frontAndBackPlanes
	{
		type	empty;
	}
}
