/*
 _____     _____     _____ _____ _____ _____    |  High-order Python FOAM
|  |  |___|  _  |_ _|   __|     |  _  |     |   |  Python Version: 3.10
|     | . |   __| | |   __|  |  |     | | | |   |  Code Version: 0.0
|__|__|___|__|  |_  |__|  |_____|__|__|_|_|_|   |  License: GPLv3
                |___|
*/
FoamFile
{
    version     2.0;
    format      ascii;
    class       volScalarField;
    location    "18.0";
    object     p;
}

dimensions      [0 0 0 1 0 0 0]; 

internalField   nonuniform List<scalar>
100
(
374112.05532577744 
73170.8598553637 
-96894.85846916039 
-130437.26826489976 
-128380.39559786273 
-128170.35936311289 
-129380.72807856125 
-94771.17925491004 
79445.40399464127 
366691.180548041 
829003.536236226 
425070.84554590564 
147097.22812188932 
38029.360783956436 
11488.440685058682 
12101.646180580552 
39866.12443666652 
150064.61305153696 
425743.1405296478 
824930.8188543163 
931931.8603951279 
555085.6263211619 
253579.49177549247 
117645.18168835562 
74660.01887844356 
75072.42764991717 
118804.55236684371 
254879.21446901007 
555388.5250653469 
930663.3400899024 
1038296.5007459263 
624804.7360564941 
332185.03713610175 
192877.54882374764 
144779.60092084802 
144971.92049573618 
193366.38908488696 
332702.0796031158 
624832.1496759171 
1038657.3919970429 
1083607.4338746688 
664967.7915337201 
373022.0717881637 
235912.90110674867 
187352.28667142402 
187408.34742301813 
236055.6106115848 
373157.63054122875 
665060.2902580784 
1083952.761012942 
1084509.3503619279 
665144.2798218195 
372946.98210906703 
235756.9605736502 
187164.41115367162 
187168.3018161265 
235755.4004500545 
372867.6756651084 
664963.7155319827 
1084447.9973302945 
1041024.6368837521 
625490.8435464037 
331961.046703027 
192439.5216993394 
144224.80745917332 
144226.00754782266 
192397.62513037465 
331730.2549750513 
624648.8387832402 
1040293.2528557635 
937086.0325400279 
555850.8334553702 
253100.4777362299 
116998.4201873306 
73809.70041434144 
73894.9061511271 
117061.32992639733 
252986.9791687183 
554604.7957845674 
933966.5670349413 
835306.477917161 
425445.1035727502 
146719.21056816343 
37388.32360487744 
10815.230283977326 
10915.882020677425 
37775.03838603315 
146767.30520491351 
424928.1533713306 
829471.284442672 
374637.69952319405 
74895.2109685919 
-96776.75949836266 
-130377.18865074696 
-128398.0834922035 
-128418.68920470437 
-130431.51201647842 
-96705.63548919959 
73404.89695987213 
374024.03762785275 
)
;

boundaryField
{
	bottom
	{
		type	pressureTraction;
	}
	top
	{
		type	pressureTraction;
	}
	left
	{
		type	fixedValueFromZeroGrad;
	}
	right
	{
		type	fixedValueFromZeroGrad;
	}
	frontAndBackPlanes
	{
		type	empty;
	}
}
