/*
 _____     _____     _____ _____ _____ _____    |  High-order Python FOAM
|  |  |___|  _  |_ _|   __|     |  _  |     |   |  Python Version: 3.10
|     | . |   __| | |   __|  |  |     | | | |   |  Code Version: 0.0
|__|__|___|__|  |_  |__|  |_____|__|__|_|_|_|   |  License: GPLv3
                |___|
*/
FoamFile
{
    version     2.0;
    format      ascii;
    class       volScalarField;
    location    "18.0";
    object     pCorr;
}

dimensions      [0 0 0 1 0 0 0]; 

internalField   nonuniform List<scalar>
100
(
4546.6917574512445 
-6613.375250066056 
-3943.557516842113 
2046.8804723676074 
6076.174552188157 
6047.141005291048 
2000.4540431153073 
-3926.775312049447 
-6222.315293760446 
4131.627831558367 
23257.002773294 
7879.897130999371 
10107.853600309807 
19236.50149003249 
25388.895894987087 
25368.796800709213 
19210.074077689544 
10162.05217578168 
7867.670367729661 
22988.89673441988 
32888.467269001834 
20017.3743783701 
22592.28635199343 
31970.587051715378 
38572.863041817465 
38545.42631995026 
31910.367558606064 
22524.887497028216 
19924.6634389342 
32694.147471118296 
43428.34631319714 
29892.153923791142 
31933.690344896775 
40260.63962629319 
46254.61184425616 
46225.20120858023 
40184.083520397406 
31829.687302480495 
29760.76360087754 
43283.89585221816 
49198.48136138115 
35421.865812686876 
36806.37622589408 
44374.56082953548 
49861.497992935394 
49833.83683637065 
44300.2293406398 
36700.97980344577 
35295.48340369406 
49064.260681198095 
49209.688737704935 
35405.63913252659 
36787.31531461797 
44361.42296321632 
49855.40552984215 
49831.320154317924 
44297.13918564179 
36694.7767023319 
35291.14222513725 
49082.85615256051 
43469.46511626996 
29849.51759340045 
31877.461876776128 
40223.5224526962 
46238.76679876692 
46218.404967545706 
40170.7906818846 
31803.55085585232 
29748.052310700692 
43344.647144729446 
33001.900950724004 
19952.74219657083 
22499.897392727235 
31914.64864084489 
38555.927861696946 
38538.74383314882 
31879.519938402256 
22457.720424086343 
19876.786868525196 
32821.56280168428 
23468.71862053763 
7784.338337034957 
10016.715616425086 
19185.97482615876 
25373.535011072963 
25366.976331745245 
19170.997741622417 
10011.320028218632 
7772.896802811037 
23195.098232455675 
4513.280387318252 
-6600.347461327669 
-3980.929587346939 
2038.0243133408499 
6099.721039047694 
6082.080964778936 
2000.8598104226505 
-4003.020898877712 
-6651.256385118373 
4523.724307244996 
)
;

boundaryField
{
	bottom
	{
		type	fixedValue;
		value	uniform 0.0;
	}
	top
	{
		type	fixedValue;
		value	uniform 0.0;
	}
	left
	{
		type	zeroGradient;
	}
	right
	{
		type	zeroGradient;
	}
	frontAndBackPlanes
	{
		type	empty;
	}
}
