/*
 _____     _____     _____ _____ _____ _____    |  High-order Python FOAM
|  |  |___|  _  |_ _|   __|     |  _  |     |   |  Python Version: 3.10
|     | . |   __| | |   __|  |  |     | | | |   |  Code Version: 0.0
|__|__|___|__|  |_  |__|  |_____|__|__|_|_|_|   |  License: GPLv3
                |___|
*/
FoamFile
{
    version     2.0;
    format      ascii;
    class       volScalarField;
    location    "33.0";
    object     p;
}

dimensions      [0 0 0 1 0 0 0]; 

internalField   nonuniform List<scalar>
100
(
420290.07329621125 
-19819.095377409132 
-155154.3384675326 
-137841.91484810686 
-108687.95181863228 
-108705.25351846562 
-137082.94628796293 
-152483.11934558285 
-6696.512868285887 
406670.9752111922 
1060867.686853147 
435397.64385489124 
155993.2183784149 
113373.83004956189 
127133.1768350532 
127725.34402037736 
115531.20914549186 
160797.21492174934 
437029.08756055473 
1053563.3429017041 
1178611.8430602746 
584195.8970661788 
258259.19255094766 
179136.18932948197 
176048.4500739352 
176454.77711745506 
180485.62796828622 
260017.07897795318 
584649.822331809 
1175681.5864055257 
1316139.4732591128 
662357.0411581516 
329698.8149230126 
231608.42414612565 
216543.70035396464 
216710.17532801826 
232080.60234007254 
330204.92744947714 
662060.083558923 
1316020.9917235328 
1379260.8169223492 
710913.273147139 
367478.8256043401 
262640.0112024885 
242178.56401915217 
242201.03004155544 
262709.13038753305 
367488.54173888185 
710741.8922097024 
1379187.0868947136 
1380622.0724630652 
711050.573002951 
367294.7639823639 
262411.07948674937 
241963.47687318543 
241938.815207347 
262354.60010721814 
367092.81161449774 
710562.717877171 
1380038.887158716 
1320261.9785368103 
662969.5253139653 
329099.4393184403 
230966.1601572444 
215926.7025550329 
215915.04118885743 
230905.3175994756 
328785.712393364 
661648.3606593766 
1318719.6512881292 
1186611.1003876484 
584668.9680550863 
257029.0329356593 
178139.2090947144 
175151.87995370454 
175222.14830651903 
178273.7764333966 
257048.28591776214 
582937.347953329 
1181134.3097635256 
1071364.7913009583 
434940.46062852966 
154867.91185391563 
112377.65366574797 
126400.94999700635 
126513.68102433415 
112873.03432965536 
155176.6222491218 
434513.62043224287 
1060985.371582349 
420358.32005449553 
-17366.212364364736 
-155173.94468864144 
-137624.20406578976 
-108313.70239730694 
-108463.23267192008 
-138010.67545718278 
-155402.42089632037 
-19927.580132206156 
419827.4702182737 
)
;

boundaryField
{
	bottom
	{
		type	pressureTraction;
	}
	top
	{
		type	pressureTraction;
	}
	left
	{
		type	fixedValueFromZeroGrad;
	}
	right
	{
		type	fixedValueFromZeroGrad;
	}
	frontAndBackPlanes
	{
		type	empty;
	}
}
