/*
 _____     _____     _____ _____ _____ _____    |  High-order Python FOAM
|  |  |___|  _  |_ _|   __|     |  _  |     |   |  Python Version: 3.10
|     | . |   __| | |   __|  |  |     | | | |   |  Code Version: 0.0
|__|__|___|__|  |_  |__|  |_____|__|__|_|_|_|   |  License: GPLv3
                |___|
*/
FoamFile
{
    version     2.0;
    format      ascii;
    class       volScalarField;
    location    "33.0";
    object     pCorr;
}

dimensions      [0 0 0 1 0 0 0]; 

internalField   nonuniform List<scalar>
100
(
605.5743592065697 
-6232.004960468357 
-3619.848390061938 
-1598.207418454265 
-1004.5290364811596 
-1012.2247406447259 
-1608.4643261538458 
-3583.4196654303364 
-5763.694469153921 
251.10260071591685 
9538.341520051257 
-2985.422403540761 
-2326.1426809953696 
784.1889211255212 
2137.249689438822 
2139.165894865988 
811.1877590032796 
-2194.507206514145 
-2886.240970774138 
9380.036917335468 
8442.751276311381 
-4040.7647827495125 
-4480.23375210068 
-1368.8481317225414 
313.40835815532915 
317.49849219214366 
-1344.4364230045753 
-4430.950224095772 
-4000.8388797776856 
8361.06574000647 
8687.244358226842 
-4864.881252887276 
-5712.141792961476 
-2873.872626277449 
-1159.309030955121 
-1156.375850266992 
-2862.441051991453 
-5695.155104450681 
-4862.4983661871665 
8671.884556467818 
9031.706867003099 
-4911.652745936852 
-6067.143482500855 
-3363.8069911860202 
-1684.7561869169997 
-1681.9068918508976 
-3355.0710311638927 
-6056.755021064207 
-4907.859392618278 
9022.35685133134 
9052.745742668461 
-4919.082090802091 
-6076.740347736323 
-3369.043370346135 
-1685.478720909424 
-1680.5022521100357 
-3354.1183524837566 
-6059.233390800273 
-4911.065564553597 
9044.558708539014 
8753.659521921938 
-4887.443558755047 
-5743.960949919154 
-2888.3017852671237 
-1160.3174717351792 
-1151.090299591942 
-2862.0608652383567 
-5710.902808962735 
-4873.699259501172 
8735.73016812169 
8586.554902834656 
-4082.6078202975414 
-4538.511880501598 
-1392.9315842977385 
313.7262229765545 
326.30546237848813 
-1351.7095506541568 
-4478.036947379707 
-4056.6886012082123 
8485.433897419149 
9775.603770365677 
-3058.6228675024317 
-2382.2816175244766 
759.7822205804587 
2136.2022042369276 
2149.647101720207 
802.5676531875919 
-2314.0973641580704 
-3002.2251165952644 
9529.925761532875 
558.4513071602552 
-6198.633127895243 
-3630.3909388745 
-1587.1173114676587 
-979.6408334490185 
-975.6401737124629 
-1578.0299636653313 
-3617.365863653819 
-6234.1976952111645 
582.4582896807109 
)
;

boundaryField
{
	bottom
	{
		type	fixedValue;
		value	uniform 0.0;
	}
	top
	{
		type	fixedValue;
		value	uniform 0.0;
	}
	left
	{
		type	zeroGradient;
	}
	right
	{
		type	zeroGradient;
	}
	frontAndBackPlanes
	{
		type	empty;
	}
}
