/*
 _____     _____     _____ _____ _____ _____    |  High-order Python FOAM
|  |  |___|  _  |_ _|   __|     |  _  |     |   |  Python Version: 3.10
|     | . |   __| | |   __|  |  |     | | | |   |  Code Version: 0.0
|__|__|___|__|  |_  |__|  |_____|__|__|_|_|_|   |  License: GPLv3
                |___|
*/
FoamFile
{
    version     2.0;
    format      ascii;
    class       volVectorField;
    location    "33.0";
    object     U;
}

dimensions      [0 1 0 0 0 0 0]; 

internalField   nonuniform List<vector>
100
(
(0.017429524912371003 0.03226079135741166 0.0) 
(0.021612056269081945 0.04785802253034544 0.0) 
(0.028375552693289244 0.04887972226277883 0.0) 
(0.036967909047000924 0.050307259481554185 0.0) 
(0.04573578318937608 0.051154529856659865 0.0) 
(0.05448820010693927 0.05114528905265078 0.0) 
(0.06326884601561886 0.050261946250391494 0.0) 
(0.07191007044391234 0.04878369163141991 0.0) 
(0.07860407586650499 0.0474398532085592 0.0) 
(0.08341938294144215 0.03192626092317159 0.0) 
(0.013925551655436583 0.021170950844945836 0.0) 
(0.015422985219845364 0.03583582413139399 0.0) 
(0.024487031126628738 0.04080422564806367 0.0) 
(0.0347019280825913 0.042357693266916296 0.0) 
(0.045004390935377565 0.043001251186589456 0.0) 
(0.05522799004767584 0.0429782656599484 0.0) 
(0.06554426151995693 0.04227745875077185 0.0) 
(0.07576603831114843 0.04062854418212635 0.0) 
(0.08482011429589437 0.0355526577039884 0.0) 
(0.08612303571580492 0.021070253930171694 0.0) 
(0.010634108109719946 0.012136037252507816 0.0) 
(0.011610543058272778 0.024089491292519152 0.0) 
(0.02081734940316931 0.029129215001566202 0.0) 
(0.03242690704730462 0.031122876808515318 0.0) 
(0.04422966073452518 0.03175358515903643 0.0) 
(0.05595801079615215 0.03172506181854163 0.0) 
(0.06775049941310671 0.031034304748161413 0.0) 
(0.07932551565073795 0.02898130332527709 0.0) 
(0.08845955306728234 0.02394589161792577 0.0) 
(0.08943009580471085 0.01210101893283706 0.0) 
(0.010696710158599097 0.006748423757815471 0.0) 
(0.009474129655341028 0.013761643038946546 0.0) 
(0.018566046700734546 0.017408058239367787 0.0) 
(0.03077788297699229 0.01899180128429186 0.0) 
(0.04363157417657474 0.01952025511079022 0.0) 
(0.05649645869898842 0.019496724396415956 0.0) 
(0.06933099237096255 0.018924347980276007 0.0) 
(0.08150183408265105 0.017315312914803423 0.0) 
(0.09055248338676149 0.013682684510588728 0.0) 
(0.08925188281996131 0.006729786121997855 0.0) 
(0.01084566677793893 0.002156506335189573 0.0) 
(0.008766607837483936 0.004509307551479979 0.0) 
(0.01754154192784499 0.005775588910330217 0.0) 
(0.029971992089528842 0.006376159838721391 0.0) 
(0.043317437969575594 0.006578881884165129 0.0) 
(0.056763329086376525 0.006564027971815885 0.0) 
(0.07009063717421415 0.00633561116268355 0.0) 
(0.08249143467817253 0.005721787473353835 0.0) 
(0.09124107636012685 0.0044657606260979105 0.0) 
(0.08915872016881676 0.0021379325522613694 0.0) 
(0.010873946448698008 -0.0021190557072199604 0.0) 
(0.008769379732626165 -0.004499456648443657 0.0) 
(0.01754385626106154 -0.005784699057429768 0.0) 
(0.029970254071117294 -0.006393121902931196 0.0) 
(0.04330892960836785 -0.006607547365959673 0.0) 
(0.056748167114523254 -0.006614102869089757 0.0) 
(0.07007182012948365 -0.006411270802669623 0.0) 
(0.0824742225991226 -0.005810660797678025 0.0) 
(0.09123348979161106 -0.0045308271410412215 0.0) 
(0.08913000323483336 -0.0021413552768467215 0.0) 
(0.010727173043534977 -0.006715073381738343 0.0) 
(0.00949198721530066 -0.013760284981667157 0.0) 
(0.018578068739818893 -0.017412900698204625 0.0) 
(0.030773783083248425 -0.01899535095267792 0.0) 
(0.04360673046497462 -0.019534019036841713 0.0) 
(0.05645052665805381 -0.01953370957932121 0.0) 
(0.06927127122250185 -0.018994904863803466 0.0) 
(0.08144658989390867 -0.01741256025420432 0.0) 
(0.09051272576149473 -0.013771269445797443 0.0) 
(0.0892450974901868 -0.006742364678152441 0.0) 
(0.010752134799646084 -0.012129476721276731 0.0) 
(0.011680018208900111 -0.024105908842026586 0.0) 
(0.020843083804104833 -0.029112200231645603 0.0) 
(0.03242273407563608 -0.03109940924190401 0.0) 
(0.04419154873959811 -0.03173674217108024 0.0) 
(0.05588240413149182 -0.03173123904006597 0.0) 
(0.06764513281013156 -0.03108533973376445 0.0) 
(0.0792129452438323 -0.02909224563141185 0.0) 
(0.08838630895122847 -0.024074447337282884 0.0) 
(0.08926952974287466 -0.012140318518201599 0.0) 
(0.014322668012749623 -0.02123416628461343 0.0) 
(0.01549823967563661 -0.03581835707111767 0.0) 
(0.024518164365830455 -0.04075551293412055 0.0) 
(0.03469340989206188 -0.042294567756893615 0.0) 
(0.04495421129728425 -0.04293776592877716 0.0) 
(0.05513299355174687 -0.042934835664438835 0.0) 
(0.06540149673396241 -0.04227970729090739 0.0) 
(0.07559195815098288 -0.040726629155741774 0.0) 
(0.08461002209346156 -0.03578438726311927 0.0) 
(0.0860875625451445 -0.021172134483581698 0.0) 
(0.01743992947678336 -0.03235880945886467 0.0) 
(0.02167970521586844 -0.04780279002243983 0.0) 
(0.028381045479821787 -0.04880639985833987 0.0) 
(0.03694796165022403 -0.05020544379561401 0.0) 
(0.045683478027616735 -0.05105077497691188 0.0) 
(0.05439749177757278 -0.05104860271759429 0.0) 
(0.06313898896785969 -0.05020010055055094 0.0) 
(0.07171023104275231 -0.0487804908262411 0.0) 
(0.07845077537236353 -0.047769886656859294 0.0) 
(0.08259790587154843 -0.03223392952654186 0.0) 
)
;

boundaryField
{
	bottom
	{
		type	solidTraction;
		value	nonuniform List<vector>
10
(
(0.01964260508222926 0.038375471456937614 0.0) 
(0.024748173291208687 0.049849166248256103 0.0) 
(0.030715806592205713 0.05335681308887595 0.0) 
(0.038137806794099074 0.05425683503833306 0.0) 
(0.046101953168826384 0.055069476525046596 0.0) 
(0.054120965076542835 0.05506308899604339 0.0) 
(0.062104276353474715 0.05422556656669774 0.0) 
(0.06955848992284305 0.053223452897776566 0.0) 
(0.0757175411739011 0.04947081058786214 0.0) 
(0.08133860909865248 0.03795189120199146 0.0) 
)
;
	}
	top
	{
		type	solidTraction;
		value	nonuniform List<vector>
10
(
(0.019590518088045638 -0.03846650733475104 0.0) 
(0.02474584873926463 -0.04981634296395131 0.0) 
(0.03071725177521525 -0.05326773591050791 0.0) 
(0.03811052300631595 -0.054141873343989004 0.0) 
(0.04604692466475517 -0.05494620943905387 0.0) 
(0.054032068014836496 -0.05494503230859396 0.0) 
(0.06197191867717092 -0.05413612675409307 0.0) 
(0.0693751831701939 -0.05324528270129858 0.0) 
(0.07532332074827372 -0.04975762739130345 0.0) 
(0.08039968014012343 -0.038332098964629226 0.0) 
)
;
	}
	left
	{
		type	fixedValue;
		value	uniform (0.0 0.0 0.0);
	}
	right
	{
		type	fixedValue;
		value	uniform (0.1 0.0 0.0);
	}
	frontAndBackPlanes
	{
		type	empty;
	}
}
