0.05 	0.549485
0.15 	0.607259
0.25 	0.671132
0.35 	0.741722
0.45 	0.819736
0.55 	0.905954
0.65 	1.00124
0.75 	1.10655
0.85 	1.22294
0.95 	1.35152
