/*
 _____     _____     _____ _____ _____ _____    |  High-order Python FOAM
|  |  |___|  _  |_ _|   __|     |  _  |     |   |  Python Version: 3.10
|     | . |   __| | |   __|  |  |     | | | |   |  Code Version: 0.0
|__|__|___|__|  |_  |__|  |_____|__|__|_|_|_|   |  License: GPLv3
                |___|
*/
FoamFile
{
    version     2.0;
    format      ascii;
    class       volScalarField;
    location    "55.0";
    object     p;
}

dimensions      [0 0 0 1 0 0 0]; 

internalField   nonuniform List<scalar>
100
(
412433.8985676751 
-107506.38297311701 
-191177.70622637123 
-148396.41428293136 
-120880.07950217121 
-121084.96162016527 
-148191.99885481 
-188486.76337678148 
-85553.86218815397 
392808.6316845093 
1231122.6473873034 
403731.5184430328 
152449.45051246852 
155721.08495319297 
180667.3176320961 
181109.20379486462 
157797.21927443327 
158990.61513664838 
407036.9339706313 
1221102.9087691514 
1349255.0156395414 
547729.3978871153 
230179.8043576245 
200002.2110800982 
214784.6927177012 
215095.4338812261 
201325.22920496148 
232250.3352191976 
548469.2453039747 
1344242.553894989 
1504077.4595950574 
619667.5028299078 
288433.57221481676 
237392.6511722619 
242762.8208188309 
242850.69992792374 
237705.51108746926 
288729.6768662532 
618839.7466939252 
1502925.0055718508 
1579082.8440203308 
671710.4441394971 
324723.2945579663 
266132.8791809 
266625.6486145458 
266584.8550567296 
266036.41269762564 
324438.88206095475 
671011.3494301339 
1578051.1111375056 
1580825.6984873074 
671717.5749526665 
324383.338195049 
265817.119475893 
266384.65164017264 
266328.3341888848 
265696.18947625946 
324015.570448506 
670793.7317903865 
1579367.2994613643 
1509400.9642460295 
619821.5556283055 
287285.12042047095 
236507.16248259437 
242080.7660622726 
242097.97871944663 
236558.89137725846 
287103.06433917885 
618286.6590926287 
1506919.4386751826 
1359818.058670026 
547352.3677267715 
227895.94526967988 
198551.4512159805 
213766.03767310278 
213915.72901626868 
199068.0368499482 
228649.91388911396 
545844.2684342973 
1352111.5491951744 
1246065.4390649043 
401820.4669590874 
150269.47966870325 
154191.99228177525 
179707.68842204884 
179925.32940448076 
155158.37588175092 
151605.18123184956 
402427.2756085928 
1230943.0431912576 
411430.32881108846 
-104436.07717062917 
-191368.0229509526 
-147997.04002601275 
-120209.46927818262 
-120325.87951627454 
-148306.82690263222 
-191436.16497061044 
-107659.19626486878 
411556.2987365768 
)
;

boundaryField
{
	bottom
	{
		type	pressureTraction;
	}
	top
	{
		type	pressureTraction;
	}
	left
	{
		type	fixedValueFromZeroGrad;
	}
	right
	{
		type	fixedValueFromZeroGrad;
	}
	frontAndBackPlanes
	{
		type	empty;
	}
}
