/*
 _____     _____     _____ _____ _____ _____    |  High-order Python FOAM
|  |  |___|  _  |_ _|   __|     |  _  |     |   |  Python Version: 3.10
|     | . |   __| | |   __|  |  |     | | | |   |  Code Version: 0.0
|__|__|___|__|  |_  |__|  |_____|__|__|_|_|_|   |  License: GPLv3
                |___|
*/
FoamFile
{
    version     2.0;
    format      ascii;
    class       volScalarField;
    location    "47.0";
    object     p;
}

dimensions      [0 0 0 1 0 0 0]; 

internalField   nonuniform List<scalar>
100
(
417824.241844005 
-83805.06619721801 
-183143.78827810212 
-145709.6688566937 
-115345.07895322297 
-115493.30272607888 
-145282.05349633127 
-180351.65378857517 
-64729.01967284773 
400029.3427624438 
1179701.3747628373 
413412.71446912084 
152486.3073587699 
144453.61904219585 
168652.3737483951 
169156.8200944205 
146617.57278153213 
158556.61865583993 
416184.7206073023 
1170498.8493826352 
1298745.599523788 
561005.9495854387 
239900.26087556116 
196879.53985032803 
208799.30096680045 
209148.6543816025 
198239.10567516545 
241907.56127448656 
561673.6656548313 
1294463.8923981816 
1449366.6627807592 
636878.5657336905 
303710.85168906854 
239666.94332477593 
241005.695383758 
241118.51674555894 
240032.7066014115 
304080.627590071 
636235.9835216631 
1448612.9443104833 
1521431.067771333 
688756.8155684847 
341062.5533495504 
269274.8467578226 
265328.2130471858 
265305.1121400825 
269225.4488085464 
340867.9889811165 
688237.1837853383 
1520768.5769018724 
1523044.6284177857 
688798.1598704826 
340762.46660998045 
268978.5356882849 
265092.3118827157 
265047.3959933553 
268881.0203943087 
340451.91536330245 
688029.592436297 
1521924.1946456237 
1454285.5467726141 
637171.1381137774 
302713.0126033107 
238835.45210895027 
240337.5608521626 
240354.74988866667 
238872.75790965423 
302509.44487116265 
635719.7957928935 
1452163.6417217953 
1308467.777371128 
560894.1133089748 
237922.4229378406 
195545.60323347052 
207821.3858031685 
207963.8286620179 
195982.50139634789 
238470.79031561565 
559322.4671156658 
1301523.7804047999 
1193166.9961489395 
411965.0889084614 
150618.24026109735 
143079.13434753043 
167781.1856043194 
167989.55468742625 
143946.63069809965 
151659.67112332655 
412233.78235948086 
1179623.938734674 
417203.29208180914 
-80954.47706775655 
-183305.72107007724 
-145388.02884182104 
-114753.50494699311 
-114869.30415369743 
-145697.26429062922 
-183403.0935002197 
-83952.58040061647 
417081.99811221904 
)
;

boundaryField
{
	bottom
	{
		type	pressureTraction;
	}
	top
	{
		type	pressureTraction;
	}
	left
	{
		type	fixedValueFromZeroGrad;
	}
	right
	{
		type	fixedValueFromZeroGrad;
	}
	frontAndBackPlanes
	{
		type	empty;
	}
}
