/*
 _____     _____     _____ _____ _____ _____    |  High-order Python FOAM
|  |  |___|  _  |_ _|   __|     |  _  |     |   |  Python Version: 3.10
|     | . |   __| | |   __|  |  |     | | | |   |  Code Version: 0.0
|__|__|___|__|  |_  |__|  |_____|__|__|_|_|_|   |  License: GPLv3
                |___|
*/
FoamFile
{
    version     2.0;
    format      ascii;
    class       volScalarField;
    location    "34.0";
    object     p;
}

dimensions      [0 0 0 1 0 0 0]; 

internalField   nonuniform List<scalar>
100
(
420680.36125126254 
-25824.317640792706 
-158474.74257313187 
-139200.57099362364 
-109528.46927465983 
-109553.92031451903 
-138454.4288225662 
-155771.70418713093 
-12238.629734116814 
406716.081591403 
1070239.0890561687 
432688.930589754 
154191.3470487378 
114678.89035301645 
129731.10691676459 
130323.39401610036 
116857.9431701952 
159119.82265722528 
434417.0151556195 
1062780.2736118678 
1187263.1316357043 
580802.6229191736 
254732.56804221566 
178772.23940733794 
177331.80980231 
177740.26243943503 
180140.67277190572 
256532.89122167052 
581291.2151872964 
1184247.5591620964 
1325319.0561967643 
658441.914180057 
325261.5018266722 
230099.20667321558 
216738.63474197127 
216906.24783593835 
230577.883113397 
325777.8426236375 
658140.6715281386 
1325178.0978092046 
1388930.2435444333 
707104.7394160964 
362855.6327171923 
260827.9773655868 
242047.6184326856 
242071.3289551715 
260901.3642327245 
362869.35749075277 
706930.0734063605 
1388839.7348264426 
1390311.155356628 
707233.94164094 
362661.51024546905 
260593.3576043193 
241831.37462208822 
241810.27281314414 
260547.87599595397 
362471.5039156803 
706748.004058648 
1389713.599531147 
1329504.0232195356 
659029.5602128992 
324628.9510490182 
229441.1978027144 
216119.36901255278 
216115.77031306934 
229403.48912920454 
324344.21334018576 
657718.5725326464 
1327939.9192313475 
1195399.3952820823 
581231.0084978248 
253442.25728451068 
177749.11436572866 
176433.48613572877 
176515.55271492104 
177922.9554944087 
253519.99600858652 
579524.8259277269 
1189822.6040384525 
1080966.8190242073 
432156.3021339862 
153007.90167288098 
113656.01918989603 
128995.42927691495 
129121.24834398135 
114193.45090061972 
153384.98097741124 
431787.3220626187 
1070347.2704784672 
420700.2646154522 
-23340.570073969888 
-158506.23596259745 
-138973.41821622258 
-109131.2278049668 
-109276.41779220906 
-139349.7760520482 
-158720.32186557451 
-25934.58771362176 
420195.36246158654 
)
;

boundaryField
{
	bottom
	{
		type	pressureTraction;
	}
	top
	{
		type	pressureTraction;
	}
	left
	{
		type	fixedValueFromZeroGrad;
	}
	right
	{
		type	fixedValueFromZeroGrad;
	}
	frontAndBackPlanes
	{
		type	empty;
	}
}
