/*
 _____     _____     _____ _____ _____ _____    |  High-order Python FOAM
|  |  |___|  _  |_ _|   __|     |  _  |     |   |  Python Version: 3.10
|     | . |   __| | |   __|  |  |     | | | |   |  Code Version: 0.0
|__|__|___|__|  |_  |__|  |_____|__|__|_|_|_|   |  License: GPLv3
                |___|
*/
FoamFile
{
    version     2.0;
    format      ascii;
    class       volVectorField;
    location    "34.0";
    object     U;
}

dimensions      [0 1 0 0 0 0 0]; 

internalField   nonuniform List<vector>
100
(
(0.01733000850310962 0.03245526505467457 0.0) 
(0.021485515790922487 0.04775391555375235 0.0) 
(0.028346263349722206 0.04867364070240512 0.0) 
(0.03697394475747305 0.05013449130269637 0.0) 
(0.0457438189177938 0.05102378690672256 0.0) 
(0.05448476901540471 0.05101478731606101 0.0) 
(0.06326760990604795 0.050090238192299984 0.0) 
(0.07194478070305528 0.048580984561720046 0.0) 
(0.07873049659015047 0.047334206831145635 0.0) 
(0.08352728269045177 0.032109511164219354 0.0) 
(0.014000350303881182 0.02126059697400047 0.0) 
(0.01539696075967872 0.03580043966330659 0.0) 
(0.024483558960292844 0.04067441207520682 0.0) 
(0.034712379782034085 0.042218322574336845 0.0) 
(0.04501061781809308 0.04287615074840038 0.0) 
(0.05522578275850184 0.042853388662649504 0.0) 
(0.06553782114507428 0.042138698959493126 0.0) 
(0.07577315410033325 0.04049875958386528 0.0) 
(0.08485001078165332 0.035513685156194 0.0) 
(0.08605092062850528 0.02115838672649722 0.0) 
(0.010659712418676524 0.012157276791179259 0.0) 
(0.011583134447173965 0.024060298732188026 0.0) 
(0.020827095732223407 0.029039105615408692 0.0) 
(0.03245064455715118 0.031008368902388575 0.0) 
(0.04424126015364619 0.03163705711939811 0.0) 
(0.05594985440742699 0.031608584422814195 0.0) 
(0.06773020664660419 0.03091971224494575 0.0) 
(0.07931888318374625 0.028890186837225898 0.0) 
(0.08848863012112153 0.02391499541727809 0.0) 
(0.08940540951793108 0.012121711969543997 0.0) 
(0.010721597637972523 0.006756379533694172 0.0) 
(0.009428790027055375 0.013739360180072614 0.0) 
(0.018571089220902618 0.01735470322749639 0.0) 
(0.03080501931119219 0.018919268679775367 0.0) 
(0.04364550244383876 0.019441550007558105 0.0) 
(0.05648547898254128 0.019417996788975857 0.0) 
(0.06930659349710597 0.018851601612904986 0.0) 
(0.08149885485018007 0.01726138455276886 0.0) 
(0.09059890122921993 0.013659695123781098 0.0) 
(0.08922741245212655 0.00673776815930919 0.0) 
(0.010868754333228254 0.002158609700040881 0.0) 
(0.00871422594905477 0.004501682668188665 0.0) 
(0.01754142369709196 0.0057576894286737665 0.0) 
(0.029998289896307064 0.006351567020300504 0.0) 
(0.0433316300773966 0.006551548627151959 0.0) 
(0.056751679259488604 0.006536734927707203 0.0) 
(0.07006654176775372 0.006311080625922161 0.0) 
(0.08249308413882941 0.005703870447443588 0.0) 
(0.09129416231254536 0.00445807639436719 0.0) 
(0.08913586191765553 0.0021400313612914513 0.0) 
(0.010897094204100295 -0.0021207768789267794 0.0) 
(0.008716878510089066 -0.004492196388410594 0.0) 
(0.017543689263594217 -0.00576754002792235 0.0) 
(0.02999653652874687 -0.006369286862287975 0.0) 
(0.04332305029642607 -0.006580800110566828 0.0) 
(0.056736337962878594 -0.006587198278697421 0.0) 
(0.07004745838475686 -0.00638702528950615 0.0) 
(0.08247562109904469 -0.005793008996057923 0.0) 
(0.09128647423073062 -0.0045232329972411224 0.0) 
(0.08910698458238361 -0.0021430782352937017 0.0) 
(0.010752322116818423 -0.006722639467213758 0.0) 
(0.009446282512444013 -0.013738406201097127 0.0) 
(0.018583018010523755 -0.017360318317822043 0.0) 
(0.030800885206650294 -0.018923525162624456 0.0) 
(0.043620423716750296 -0.019455790388087955 0.0) 
(0.05643897080918802 -0.019455224873150757 0.0) 
(0.06924596652998016 -0.018922363583546077 0.0) 
(0.08144274919998218 -0.01735900927683715 0.0) 
(0.09055874807128025 -0.013748666195372279 0.0) 
(0.08922016246982431 -0.006750100543565475 0.0) 
(0.010777946531149796 -0.012150636061711793 0.0) 
(0.011652389521293929 -0.024077343690000957 0.0) 
(0.020852771881096983 -0.02902278399718052 0.0) 
(0.03244637683715172 -0.030985425659957284 0.0) 
(0.04420266337361438 -0.03162045398470771 0.0) 
(0.05587318649762484 -0.031614660925975376 0.0) 
(0.06762316585599526 -0.030970481511279478 0.0) 
(0.07920434548563997 -0.02900152758637328 0.0) 
(0.08841441120711915 -0.024044489790697714 0.0) 
(0.08924412850361858 -0.012161588724813762 0.0) 
(0.014400647032307574 -0.021325727335558046 0.0) 
(0.015471877532588049 -0.03578347772565758 0.0) 
(0.024514589914223905 -0.040626021348632496 0.0) 
(0.03470347413595715 -0.04215538294340527 0.0) 
(0.04495951856036844 -0.042812633107429617 0.0) 
(0.05512915124398511 -0.042809384513210424 0.0) 
(0.06539257784871343 -0.04213960774776739 0.0) 
(0.0755962592662633 -0.04059563636621196 0.0) 
(0.08463670686359216 -0.035747846964384496 0.0) 
(0.086013159023879 -0.021261681812097085 0.0) 
(0.017339837226840276 -0.032555745275810295 0.0) 
(0.021553347978974787 -0.047699262214589665 0.0) 
(0.028351212609578662 -0.04860061004559137 0.0) 
(0.03695323131053141 -0.050032733483833886 0.0) 
(0.04569002511918815 -0.050920066220472286 0.0) 
(0.054391536628396256 -0.05091739467480886 0.0) 
(0.06313427214696 -0.05002610546738734 0.0) 
(0.07174051365947144 -0.04857287882080999 0.0) 
(0.07857809099455755 -0.04766411559987462 0.0) 
(0.08269819427703928 -0.032427298025073686 0.0) 
)
;

boundaryField
{
	bottom
	{
		type	solidTraction;
		value	nonuniform List<vector>
10
(
(0.019484251169321568 0.038572758400238834 0.0) 
(0.024602496639913863 0.04977678319954527 0.0) 
(0.030656704490717723 0.053138333789773506 0.0) 
(0.03813403117007065 0.054061777426817684 0.0) 
(0.04610770913624312 0.05491947989959896 0.0) 
(0.054120183461876366 0.054913478576508246 0.0) 
(0.06211338012707775 0.05403234242199967 0.0) 
(0.06962217881317251 0.053008286302677 0.0) 
(0.07586612310109568 0.04939549618903514 0.0) 
(0.08150532592530282 0.03813650767991766 0.0) 
)
;
	}
	top
	{
		type	solidTraction;
		value	nonuniform List<vector>
10
(
(0.01943111229920765 -0.03866647534615902 0.0) 
(0.024599728396621875 -0.04974506528581325 0.0) 
(0.030657557806090294 -0.05304959721689318 0.0) 
(0.0381056768954163 -0.053946912354365384 0.0) 
(0.04605082942734878 -0.05479613556233671 0.0) 
(0.05402832989706173 -0.054794423055691384 0.0) 
(0.06197700914080615 -0.053939755441820926 0.0) 
(0.06943533652098215 -0.05302511870096873 0.0) 
(0.07546990780207669 -0.04968346545966443 0.0) 
(0.08055892259175106 -0.03852791668469443 0.0) 
)
;
	}
	left
	{
		type	fixedValue;
		value	uniform (0.0 0.0 0.0);
	}
	right
	{
		type	fixedValue;
		value	uniform (0.1 0.0 0.0);
	}
	frontAndBackPlanes
	{
		type	empty;
	}
}
